Chemical formula,A,B,In literature,Valence A,Valence B,Radius A [ang],Radius B [ang],Lowest distortion,Formation energy [eV/atom],Stability [eV/atom],Magnetic moment [mu_B],Volume per atom [A^3/atom],Band gap [eV],a [ang],b [ang],c [ang],alpha [deg],beta [deg],gamma [deg],Vacancy energy [eV/O atom]
TiNiO3,Ti,Ni,FALSE,2,4,0.86,0.48,cubic,-1.212,1.256,0.400,9.392,0.000,3.608,3.608,3.608,90.0,90.0,90.0,-1.581
TiNpO3,Ti,Np,FALSE,element not in BV,element not in BV,0.74,0.86,orthorhombic,-3.106,0.268,1.000,13.929,0.000,5.658,5.927,8.307,90.0,90.0,90.0,-
TiOsO3,Ti,Os,FALSE,element not in BV,element not in BV,0.74,0.57,cubic,-0.939,1.355,0.230,11.644,0.000,3.876,3.876,3.876,90.0,90.0,90.0,-0.206
TiPaO3,Ti,Pa,FALSE,element not in BV,element not in BV,0.74,0.91,cubic,-1.958,0.999,0.593,16.663,0.000,4.368,4.368,4.368,90.0,90.0,90.0,3.847
TiPbO3,Ti,Pb,FALSE,2,4,0.86,0.78,orthorhombic,-2.367,0.150,0.000,15.451,1.808,5.589,5.774,9.576,90.0,90.0,90.0,0.001
TiPdO3,Ti,Pd,FALSE,2,4,0.86,0.62,cubic,-0.680,1.526,0.223,11.839,0.000,3.897,3.897,3.897,90.0,90.0,90.0,-1.399
TiPmO3,Ti,Pm,FALSE,element not in BV,element not in BV,0.74,0.97,orthorhombic,-3.145,0.269,0.200,13.474,0.000,5.696,5.764,8.208,90.0,90.0,90.0,-6.774
TiPrO3,Ti,Pr,FALSE,2,4,0.86,0.85,orthorhombic,-3.098,0.284,0.200,13.954,0.000,5.738,5.841,8.326,90.0,90.0,90.0,-7.286
TiPtO3,Ti,Pt,FALSE,element not in BV,element not in BV,0.74,0.67,cubic,-0.525,1.657,0.018,12.245,0.000,3.941,3.941,3.941,90.0,90.0,90.0,-1.920
TiPuO3,Ti,Pu,FALSE,element not in BV,element not in BV,0.74,0.83,orthorhombic,-3.178,0.260,1.200,13.728,0.390,5.652,5.906,8.224,90.0,90.0,90.0,-
TiRbO3,Ti,Rb,FALSE,not balanced,not balanced,0.74,1.52,orthorhombic,-2.354,0.216,0.000,17.169,0.000,5.979,6.680,8.598,90.0,90.0,90.0,-17.758
TiReO3,Ti,Re,FALSE,2,4,0.86,0.63,cubic,-1.272,1.186,0.429,11.730,0.000,3.885,3.885,3.885,90.0,90.0,90.0,0.567
TiRhO3,Ti,Rh,FALSE,2,4,0.86,0.60,cubic,-0.857,1.400,0.005,11.420,0.000,3.851,3.851,3.851,90.0,90.0,90.0,-1.546
TiRuO3,Ti,Ru,FALSE,2,4,0.86,0.62,cubic,-0.998,1.327,-0.007,11.315,0.000,3.839,3.839,3.839,90.0,90.0,90.0,-0.586
TiSbO3,Ti,Sb,FALSE,2,4,0.86,0.68,cubic,-1.128,1.344,0.457,13.476,0.000,4.069,4.069,4.069,90.0,90.0,90.0,1.031
TiScO3,Ti,Sc,FALSE,not balanced,not balanced,0.74,0.75,cubic,-2.238,1.227,0.200,12.309,0.000,3.948,3.948,3.948,90.0,90.0,90.0,-1.921
TiSiO3,Ti,Si,FALSE,2,4,0.86,0.40,cubic,-2.231,0.733,0.399,8.748,0.000,3.523,3.523,3.523,90.0,90.0,90.0,4.402
TiSmO3,Ti,Sm,FALSE,not balanced,not balanced,0.74,0.96,orthorhombic,-3.157,0.263,0.200,13.325,0.000,5.685,5.731,8.180,90.0,90.0,90.0,-6.440
TiSnO3,Ti,Sn,FALSE,2,4,0.86,0.69,orthorhombic,-2.316,0.250,0.000,14.526,1.051,5.463,5.791,9.182,90.0,90.0,90.0,1.902
TiSrO3,Ti,Sr,FALSE,not balanced,not balanced,0.74,1.18,orthorhombic,-3.182,0.171,0.001,15.270,2.843,5.607,5.726,9.512,90.0,90.0,90.0,-11.834
TiTaO3,Ti,Ta,FALSE,2,4,0.86,0.68,cubic,-2.185,0.690,0.472,12.440,0.000,3.962,3.962,3.962,90.0,90.0,90.0,3.640
TiTbO3,Ti,Tb,FALSE,2,4,0.86,0.76,orthorhombic,-3.087,0.255,0.200,12.735,0.000,5.624,5.633,8.040,90.0,90.0,90.0,-5.488
TiTcO3,Ti,Tc,FALSE,element not in BV,element not in BV,0.74,0.60,cubic,-1.327,1.129,0.435,11.556,0.000,3.866,3.866,3.866,90.0,90.0,90.0,0.895
TiTeO3,Ti,Te,FALSE,2,4,0.86,0.97,cubic,-0.837,1.498,0.434,14.383,0.000,4.159,4.159,4.159,90.0,90.0,90.0,0.842
TiThO3,Ti,Th,FALSE,2,4,0.86,0.94,cubic,-2.171,1.469,0.400,18.617,0.000,4.532,4.532,4.532,90.0,90.0,90.0,2.591
Ti2O3,Ti,Ti,FALSE,not balanced,not balanced,0.74,0.71,cubic,-2.417,0.705,0.384,11.154,0.000,3.821,3.821,3.821,90.0,90.0,90.0,2.661
TiTlO3,Ti,Tl,FALSE,not balanced,not balanced,0.74,1.20,orthorhombic,-2.053,0.268,0.000,14.423,0.000,5.539,5.784,9.003,90.0,90.0,90.0,-7.139
TiTmO3,Ti,Tm,FALSE,not balanced,not balanced,0.74,0.96,cubic,-1.991,1.536,0.207,14.557,0.000,4.175,4.175,4.175,90.0,90.0,90.0,-4.261
TiUO3,Ti,U,FALSE,2,4,0.86,0.89,orthorhombic,-3.001,0.388,0.800,13.578,0.000,5.691,5.953,8.016,90.0,90.0,90.0,3.769
TiVO3,Ti,V,FALSE,2,4,0.86,0.58,cubic,-2.002,0.911,0.604,10.609,0.000,3.757,3.757,3.757,90.0,90.0,90.0,2.541
TiWO3,Ti,W,FALSE,2,4,0.86,0.66,cubic,-1.660,0.939,0.465,11.953,0.000,3.910,3.910,3.910,90.0,90.0,90.0,2.079
TiYO3,Ti,Y,FALSE,not balanced,not balanced,0.74,0.90,cubic,-1.818,1.660,0.212,15.405,0.000,4.255,4.255,4.255,90.0,90.0,90.0,-5.158
TiYbO3,Ti,Yb,FALSE,not balanced,not balanced,0.74,0.95,orthorhombic,-3.319,0.210,0.000,12.773,2.612,5.393,5.510,8.596,90.0,90.0,90.0,-8.194
TiZnO3,Ti,Zn,FALSE,not balanced,not balanced,0.74,0.74,cubic,-1.111,1.504,0.169,10.437,0.000,3.737,3.737,3.737,90.0,90.0,90.0,-3.817
TiZrO3,Ti,Zr,FALSE,2,4,0.86,0.72,cubic,-2.362,0.915,0.400,13.792,0.000,4.101,4.101,4.101,90.0,90.0,90.0,0.297
TlAcO3,Tl,Ac,FALSE,element not in BV,element not in BV,1.70,1.12,cubic,-1.676,0.595,-0.002,19.189,0.000,4.578,4.578,4.578,90.0,90.0,90.0,-1.622
TlAgO3,Tl,Ag,FALSE,not balanced,not balanced,1.70,0.95,orthorhombic,-0.482,0.099,-,12.766,0.000,5.542,5.728,8.043,90.0,90.0,90.0,-2.008
TlAlO3,Tl,Al,FALSE,3,3,0.98,0.54,orthorhombic,-2.028,0.073,-,10.447,1.010,5.208,5.326,7.533,90.0,90.0,90.0,-0.122
TlAsO3,Tl,As,FALSE,3,3,0.98,0.58,tetragonal,-1.073,0.240,-,13.142,0.000,3.706,3.706,4.784,90.0,90.0,90.0,1.078
TlAuO3,Tl,Au,FALSE,element not in BV,element not in BV,1.70,0.93,orthorhombic,-0.448,0.162,-,13.084,0.000,5.595,5.809,8.051,90.0,90.0,90.0,0.056
TlBO3,Tl,B,FALSE,not balanced,not balanced,1.70,0.27,cubic,-0.679,1.101,-,8.616,0.000,3.506,3.506,3.506,90.0,90.0,90.0,-0.510
TlBaO3,Tl,Ba,FALSE,not balanced,not balanced,1.70,1.35,orthorhombic,-1.457,0.227,-,18.056,0.000,5.129,6.623,10.631,90.0,90.0,90.0,-4.334
TlBeO3,Tl,Be,FALSE,not balanced,not balanced,1.70,0.45,cubic,-0.987,0.668,-,9.320,0.000,3.599,3.599,3.599,90.0,90.0,90.0,-2.344
TlBiO3,Tl,Bi,FALSE,1,5,1.70,0.76,orthorhombic,-1.098,0.108,-,15.591,0.000,5.963,6.036,8.663,90.0,90.0,90.0,0.492
TlCaO3,Tl,Ca,FALSE,not balanced,not balanced,1.70,1.00,cubic,-0.845,0.921,-,16.029,0.000,4.311,4.311,4.311,90.0,90.0,90.0,-4.993
TlCdO3,Tl,Cd,FALSE,not balanced,not balanced,1.70,0.95,cubic,-0.285,0.688,-,14.239,0.000,4.145,4.145,4.145,90.0,90.0,90.0,-3.698
TlCeO3,Tl,Ce,FALSE,not balanced,not balanced,1.70,0.94,cubic,-1.526,0.702,-0.041,19.886,0.000,4.633,4.633,4.633,90.0,90.0,90.0,-3.232
TlCoO3,Tl,Co,FALSE,3,3,0.98,0.61,orthorhombic,-0.991,0.105,0.400,10.952,0.000,5.294,5.455,7.585,90.0,90.0,90.0,-0.542
TlCrO3,Tl,Cr,FALSE,3,3,0.98,0.62,orthorhombic,-1.672,0.038,0.600,11.302,0.543,5.342,5.501,7.693,90.0,90.0,90.0,0.334
TlCsO3,Tl,Cs,FALSE,not balanced,not balanced,1.70,1.67,orthorhombic,-0.462,0.570,-,18.293,0.648,5.458,6.322,10.603,90.0,90.0,90.0,-1.570
TlCuO3,Tl,Cu,FALSE,3,3,0.98,0.54,orthorhombic,-0.711,0.080,-,10.950,0.000,5.287,5.471,7.571,90.0,90.0,90.0,-1.479
TlDyO3,Tl,Dy,FALSE,not balanced,not balanced,1.70,0.99,cubic,-1.791,0.602,-0.402,17.195,0.000,4.414,4.414,4.414,90.0,90.0,90.0,-2.888
TlErO3,Tl,Er,FALSE,not balanced,not balanced,1.70,0.89,cubic,-1.816,0.601,-0.389,16.135,0.000,4.321,4.321,4.321,90.0,90.0,90.0,-2.990
TlEuO3,Tl,Eu,FALSE,not balanced,not balanced,1.70,1.06,orthorhombic,-1.667,0.176,0.200,15.218,0.341,6.101,6.138,8.127,90.0,90.0,90.0,-3.699
TlFeO3,Tl,Fe,TRUE,3,3,0.98,0.65,orthorhombic,-1.249,0.045,0.999,11.441,0.000,5.347,5.515,7.760,90.0,90.0,90.0,-0.727
TlGaO3,Tl,Ga,FALSE,3,3,0.98,0.62,orthorhombic,-1.454,0.065,-,11.272,0.558,5.316,5.457,7.772,90.0,90.0,90.0,-1.757
TlGdO3,Tl,Gd,FALSE,not balanced,not balanced,1.70,0.94,orthorhombic,-2.261,0.104,0.001,14.658,0.896,5.826,5.908,8.517,90.0,90.0,90.0,-3.090
TlGeO3,Tl,Ge,FALSE,3,3,0.98,0.63,tetragonal,-1.304,0.175,-,12.684,0.000,3.584,3.584,4.937,90.0,90.0,90.0,1.418
TlHfO3,Tl,Hf,FALSE,not balanced,not balanced,1.70,0.71,orthorhombic,-2.504,0.145,0.000,13.505,0.000,5.706,5.820,8.133,90.0,90.0,90.0,0.974
TlHgO3,Tl,Hg,FALSE,not balanced,not balanced,1.70,1.11,cubic,-0.043,0.608,-,14.798,0.000,4.198,4.198,4.198,90.0,90.0,90.0,-2.956
TlHoO3,Tl,Ho,FALSE,not balanced,not balanced,1.70,0.90,orthorhombic,-2.311,0.095,0.000,14.136,0.876,5.750,5.848,8.408,90.0,90.0,90.0,-3.018
TlInO3,Tl,In,FALSE,not balanced,not balanced,1.70,0.80,orthorhombic,-1.332,0.058,-,13.198,0.000,5.604,5.722,8.232,90.0,90.0,90.0,-3.323
TlIrO3,Tl,Ir,FALSE,1,5,1.70,0.57,orthorhombic,-0.822,0.161,0.000,12.101,0.000,5.515,5.581,7.863,90.0,90.0,90.0,1.362
TlKO3,Tl,K,FALSE,not balanced,not balanced,1.70,1.38,cubic,0.519,1.599,-,17.374,0.000,4.429,4.429,4.429,90.0,90.0,90.0,-10.518
TlLaO3,Tl,La,FALSE,not balanced,not balanced,1.70,1.03,orthorhombic,-2.216,0.109,0.000,16.127,1.050,6.005,6.080,8.835,90.0,90.0,90.0,-2.779
TlLiO3,Tl,Li,FALSE,not balanced,not balanced,1.70,0.76,cubic,-0.340,0.810,-,10.226,0.000,3.712,3.712,3.712,90.0,90.0,90.0,-3.981
TlLuO3,Tl,Lu,FALSE,not balanced,not balanced,1.70,0.86,orthorhombic,-2.366,0.083,0.000,13.522,0.931,5.649,5.772,8.295,90.0,90.0,90.0,-2.715
TlMgO3,Tl,Mg,FALSE,not balanced,not balanced,1.70,0.72,cubic,-1.033,0.623,-,11.843,0.000,3.898,3.898,3.898,90.0,90.0,90.0,-3.240
TlMnO3,Tl,Mn,FALSE,3,3,0.98,0.65,orthorhombic,-1.426,0.051,0.797,11.424,0.000,5.341,5.538,7.725,90.0,90.0,90.0,-0.182
TlMoO3,Tl,Mo,FALSE,1,5,1.70,0.61,cubic,-1.740,0.145,0.000,12.788,0.000,3.999,3.999,3.999,90.0,90.0,90.0,4.161
TlNaO3,Tl,Na,FALSE,not balanced,not balanced,1.70,1.02,cubic,0.160,1.261,-,13.277,0.000,4.049,4.049,4.049,90.0,90.0,90.0,-7.643
TlNbO3,Tl,Nb,FALSE,1,5,1.70,0.64,tetragonal,-2.223,0.065,0.000,13.712,0.448,4.032,4.032,4.218,90.0,90.0,90.0,4.564
TlNdO3,Tl,Nd,FALSE,not balanced,not balanced,1.70,0.98,orthorhombic,-2.164,0.115,0.000,15.638,1.014,5.955,6.036,8.702,90.0,90.0,90.0,-3.035
TlNiO3,Tl,Ni,FALSE,3,3,0.98,0.60,orthorhombic,-0.862,0.103,0.199,10.857,0.000,5.273,5.437,7.573,90.0,90.0,90.0,-1.463
TlNpO3,Tl,Np,FALSE,element not in BV,element not in BV,1.70,0.86,rhombohedral,-2.466,0.105,0.400,16.260,1.113,6.140,6.140,6.140,59.7,59.7,59.7,1.240
TlOsO3,Tl,Os,FALSE,element not in BV,element not in BV,1.70,0.57,cubic,-0.979,0.133,0.000,12.443,0.000,3.962,3.962,3.962,90.0,90.0,90.0,2.445
TlPaO3,Tl,Pa,FALSE,element not in BV,element not in BV,1.70,0.91,cubic,-2.563,-0.358,0.000,17.211,3.399,4.415,4.415,4.415,90.0,90.0,90.0,5.800
TlPbO3,Tl,Pb,FALSE,not balanced,not balanced,1.70,0.99,orthorhombic,-0.972,0.114,-,15.039,0.000,5.882,5.964,8.574,90.0,90.0,90.0,-1.497
TlPdO3,Tl,Pd,FALSE,not balanced,not balanced,1.70,0.75,orthorhombic,-0.734,0.007,-,12.197,0.000,5.445,5.615,7.979,90.0,90.0,90.0,-0.958
TlPmO3,Tl,Pm,FALSE,element not in BV,element not in BV,1.70,0.97,cubic,-1.624,0.683,-0.073,18.419,0.000,4.516,4.516,4.516,90.0,90.0,90.0,-3.370
TlPrO3,Tl,Pr,FALSE,not balanced,not balanced,1.70,0.92,orthorhombic,-2.140,0.117,0.000,15.939,0.971,5.998,6.070,8.756,90.0,90.0,90.0,-2.864
TlPtO3,Tl,Pt,FALSE,element not in BV,element not in BV,1.70,0.67,orthorhombic,-0.702,0.226,-0.001,12.457,0.000,5.531,5.694,7.912,90.0,90.0,90.0,-0.184
TlPuO3,Tl,Pu,FALSE,element not in BV,element not in BV,1.70,0.83,orthorhombic,-2.246,0.056,0.798,15.451,0.000,5.886,6.121,8.577,90.0,90.0,90.0,0.876
TlRbO3,Tl,Rb,FALSE,not balanced,not balanced,1.70,1.52,orthorhombic,-0.734,0.320,-,18.728,0.000,6.419,6.520,8.950,90.0,90.0,90.0,-9.944
TlReO3,Tl,Re,FALSE,1,5,1.70,0.58,cubic,-1.397,0.203,0.000,12.542,0.000,3.973,3.973,3.973,90.0,90.0,90.0,3.953
TlRhO3,Tl,Rh,FALSE,3,3,0.98,0.67,orthorhombic,-0.914,0.054,0.000,11.850,0.000,5.440,5.580,7.807,90.0,90.0,90.0,0.486
TlRuO3,Tl,Ru,FALSE,1,5,1.70,0.57,orthorhombic,-0.960,0.147,0.235,12.073,0.000,5.542,5.576,7.814,90.0,90.0,90.0,1.828
TlSbO3,Tl,Sb,FALSE,3,3,0.98,0.76,cubic,-1.277,0.268,-,13.556,0.000,4.077,4.077,4.077,90.0,90.0,90.0,1.980
TlScO3,Tl,Sc,FALSE,not balanced,not balanced,1.70,0.75,orthorhombic,-2.296,0.077,0.000,12.484,1.265,5.490,5.647,8.053,90.0,90.0,90.0,-2.416
TlSiO3,Tl,Si,FALSE,3,3,0.98,0.40,tetragonal,-1.833,0.356,-,11.169,0.000,3.437,3.437,4.726,90.0,90.0,90.0,2.079
TlSmO3,Tl,Sm,FALSE,not balanced,not balanced,1.70,0.96,rhombohedral,-2.213,0.106,0.000,16.056,1.625,6.248,6.248,6.248,57.0,57.0,57.0,-3.007
TlSnO3,Tl,Sn,FALSE,not balanced,not balanced,1.70,0.69,orthorhombic,-1.365,0.160,-,13.377,0.000,5.693,5.781,8.130,90.0,90.0,90.0,0.873
TlSrO3,Tl,Sr,FALSE,not balanced,not balanced,1.70,1.18,orthorhombic,-1.483,0.260,-,16.873,0.000,5.884,6.217,9.224,90.0,90.0,90.0,-5.384
TlTaO3,Tl,Ta,FALSE,1,5,1.70,0.64,tetragonal,-2.422,0.034,0.000,13.343,0.836,4.037,4.037,4.093,90.0,90.0,90.0,5.427
TlTbO3,Tl,Tb,FALSE,not balanced,not balanced,1.70,0.84,orthorhombic,-2.148,0.101,0.001,14.477,0.958,5.801,5.883,8.484,90.0,90.0,90.0,-2.923
TlTcO3,Tl,Tc,FALSE,element not in BV,element not in BV,1.70,0.60,cubic,-1.345,0.118,-0.001,12.459,0.000,3.964,3.964,3.964,90.0,90.0,90.0,3.125
TlTeO3,Tl,Te,FALSE,not balanced,not balanced,1.70,0.77,tetragonal,-1.035,0.139,-,14.575,0.000,4.089,4.089,4.358,90.0,90.0,90.0,1.166
TlThO3,Tl,Th,FALSE,not balanced,not balanced,1.70,0.94,orthorhombic,-2.611,0.277,0.000,16.806,0.000,6.024,6.302,8.854,90.0,90.0,90.0,0.058
TlTiO3,Tl,Ti,FALSE,3,3,0.98,0.67,orthorhombic,-2.156,0.165,0.000,12.000,0.000,5.513,5.570,7.815,90.0,90.0,90.0,1.152
Tl2O3,Tl,Tl,FALSE,not balanced,not balanced,1.70,1.20,orthorhombic,-0.857,0.080,-,14.299,0.000,5.718,5.814,8.602,90.0,90.0,90.0,-3.720
TlTmO3,Tl,Tm,FALSE,not balanced,not balanced,1.70,0.96,orthorhombic,-2.346,0.088,0.000,13.809,0.907,5.701,5.804,8.347,90.0,90.0,90.0,-2.758
TlUO3,Tl,U,FALSE,1,5,1.70,0.76,cubic,-2.745,-0.108,0.200,16.675,2.695,4.369,4.369,4.369,90.0,90.0,90.0,4.183
TlVO3,Tl,V,FALSE,3,3,0.98,0.64,orthorhombic,-1.754,0.216,0.399,11.634,0.000,5.406,5.513,7.807,90.0,90.0,90.0,1.822
TlWO3,Tl,W,FALSE,1,5,1.70,0.62,cubic,-1.845,0.111,0.000,12.807,0.000,4.001,4.001,4.001,90.0,90.0,90.0,4.966
TlYO3,Tl,Y,FALSE,not balanced,not balanced,1.70,0.90,orthorhombic,-2.278,0.095,0.000,14.368,1.095,5.787,5.866,8.465,90.0,90.0,90.0,-3.435
TlYbO3,Tl,Yb,FALSE,not balanced,not balanced,1.70,0.95,cubic,-1.043,0.829,-,14.664,0.000,4.185,4.185,4.185,90.0,90.0,90.0,-4.420
TlZnO3,Tl,Zn,FALSE,not balanced,not balanced,1.70,0.74,cubic,-0.580,0.548,-,11.667,0.000,3.878,3.878,3.878,90.0,90.0,90.0,-2.814
TlZrO3,Tl,Zr,FALSE,not balanced,not balanced,1.70,0.72,orthorhombic,-2.360,0.165,0.000,13.871,0.000,5.748,5.881,8.208,90.0,90.0,90.0,0.508
TmAcO3,Tm,Ac,FALSE,element not in BV,element not in BV,1.05,1.12,orthorhombic,-3.548,0.223,0.000,16.948,3.315,6.091,6.223,8.943,90.0,90.0,90.0,0.334
TmAgO3,Tm,Ag,FALSE,3,3,1.05,0.75,cubic,-1.351,0.728,0.000,12.857,0.000,4.006,4.006,4.006,90.0,90.0,90.0,-0.825
TmAlO3,Tm,Al,TRUE,3,3,1.05,0.54,orthorhombic,-3.616,-0.017,0.000,9.976,6.198,5.108,5.339,7.316,90.0,90.0,90.0,6.232
TmAsO3,Tm,As,FALSE,3,3,1.05,0.58,cubic,-1.825,0.864,0.000,12.578,0.000,3.977,3.977,3.977,90.0,90.0,90.0,1.938
TmAuO3,Tm,Au,FALSE,element not in BV,element not in BV,1.05,0.93,cubic,-1.204,0.902,0.000,13.602,0.000,4.082,4.082,4.082,90.0,90.0,90.0,-0.917
TmBO3,Tm,B,FALSE,3,3,1.05,0.27,cubic,-2.537,0.740,0.000,8.012,3.153,3.422,3.422,3.422,90.0,90.0,90.0,5.493
TmBaO3,Tm,Ba,FALSE,not balanced,not balanced,1.05,1.35,orthorhombic,-2.861,0.282,0.201,18.032,0.645,6.429,6.760,8.299,90.0,90.0,90.0,-8.566
TmBeO3,Tm,Be,FALSE,not balanced,not balanced,1.05,0.45,tetragonal,-2.817,0.335,0.032,9.338,0.000,3.266,3.266,4.378,90.0,90.0,90.0,-1.191
TmBiO3,Tm,Bi,FALSE,not balanced,not balanced,1.05,0.90,cubic,-1.428,1.275,0.000,16.531,0.000,4.356,4.356,4.356,90.0,90.0,90.0,0.344
TmCaO3,Tm,Ca,FALSE,not balanced,not balanced,1.05,1.00,cubic,-2.066,1.191,0.198,13.892,0.000,4.111,4.111,4.111,90.0,90.0,90.0,-
TmCdO3,Tm,Cd,FALSE,not balanced,not balanced,1.05,0.95,cubic,-1.511,0.949,0.000,13.539,0.000,4.076,4.076,4.076,90.0,90.0,90.0,-1.311
TmCeO3,Tm,Ce,FALSE,2,4,1.09,0.87,cubic,-2.207,1.519,0.000,18.576,0.000,4.529,4.529,4.529,90.0,90.0,90.0,1.887
TmCoO3,Tm,Co,FALSE,3,3,1.05,0.61,orthorhombic,-2.566,0.027,0.000,10.493,1.392,5.113,5.544,7.404,90.0,90.0,90.0,2.096
TmCrO3,Tm,Cr,TRUE,3,3,1.05,0.62,orthorhombic,-3.229,-0.022,0.600,10.864,2.496,5.209,5.541,7.528,90.0,90.0,90.0,4.031
TmCsO3,Tm,Cs,FALSE,not balanced,not balanced,1.05,1.67,-,-,-,-,-,-,-,-,-,-,-,-,-
TmCuO3,Tm,Cu,FALSE,3,3,1.05,0.54,orthorhombic,-2.306,0.004,0.000,10.660,0.268,5.152,5.823,7.106,90.0,90.0,90.0,0.436
TmDyO3,Tm,Dy,FALSE,not balanced,not balanced,1.05,0.99,cubic,-2.811,1.080,0.000,15.370,1.006,4.252,4.252,4.252,90.0,90.0,90.0,0.065
TmErO3,Tm,Er,FALSE,not balanced,not balanced,1.05,0.89,cubic,-2.914,1.000,0.000,14.878,1.306,4.206,4.206,4.206,90.0,90.0,90.0,0.816
TmEuO3,Tm,Eu,FALSE,not balanced,not balanced,1.05,1.06,orthorhombic,-3.119,0.205,0.200,14.961,0.000,5.615,5.729,9.301,90.0,90.0,90.0,-2.593
TmFeO3,Tm,Fe,TRUE,3,3,1.05,0.65,orthorhombic,-2.805,0.017,1.000,10.985,1.235,5.229,5.559,7.559,90.0,90.0,90.0,2.865
TmGaO3,Tm,Ga,FALSE,3,3,1.05,0.62,orthorhombic,-2.997,0.019,0.000,10.799,4.070,5.206,5.526,7.508,90.0,90.0,90.0,4.273
TmGdO3,Tm,Gd,FALSE,not balanced,not balanced,1.05,0.94,cubic,-2.694,1.169,0.000,15.965,0.673,4.306,4.306,4.306,90.0,90.0,90.0,-0.771
TmGeO3,Tm,Ge,FALSE,2,4,1.09,0.53,cubic,-2.144,0.672,0.000,11.398,0.000,3.848,3.848,3.848,90.0,90.0,90.0,2.604
TmHfO3,Tm,Hf,FALSE,2,4,1.09,0.71,cubic,-3.054,0.640,0.000,13.424,0.000,4.064,4.064,4.064,90.0,90.0,90.0,4.327
TmHgO3,Tm,Hg,FALSE,not balanced,not balanced,1.05,1.11,cubic,-1.084,1.064,0.000,14.544,0.000,4.174,4.174,4.174,90.0,90.0,90.0,-1.215
TmHoO3,Tm,Ho,FALSE,not balanced,not balanced,1.05,0.90,cubic,-2.863,1.040,0.000,15.076,1.154,4.224,4.224,4.224,90.0,90.0,90.0,0.436
TmInO3,Tm,In,FALSE,not balanced,not balanced,1.05,0.80,cubic,-2.065,0.823,0.000,13.593,1.289,4.081,4.081,4.081,90.0,90.0,90.0,2.513
TmIrO3,Tm,Ir,FALSE,2,4,1.09,0.63,cubic,-1.566,0.878,0.000,12.215,0.000,3.938,3.938,3.938,90.0,90.0,90.0,-1.279
TmKO3,Tm,K,FALSE,not balanced,not balanced,1.05,1.38,orthorhombic,-2.089,0.454,0.400,17.528,0.000,5.827,5.847,10.289,90.0,90.0,90.0,-4.209
TmLaO3,Tm,La,FALSE,not balanced,not balanced,1.05,1.03,cubic,-2.328,1.494,0.000,18.215,0.000,4.499,4.499,4.499,90.0,90.0,90.0,1.591
TmLiO3,Tm,Li,FALSE,not balanced,not balanced,1.05,0.76,cubic,-2.064,0.583,0.398,9.313,0.000,3.598,3.598,3.598,90.0,90.0,90.0,-1.574
TmLuO3,Tm,Lu,FALSE,not balanced,not balanced,1.05,0.86,cubic,-3.061,0.886,0.000,14.170,1.726,4.138,4.138,4.138,90.0,90.0,90.0,1.867
TmMgO3,Tm,Mg,FALSE,not balanced,not balanced,1.05,0.72,cubic,-2.551,0.602,0.200,10.823,0.000,3.782,3.782,3.782,90.0,90.0,90.0,-1.829
TmMnO3,Tm,Mn,FALSE,2,4,1.09,0.53,orthorhombic,-2.981,0.043,0.800,11.019,0.411,5.220,5.688,7.422,90.0,90.0,90.0,3.296
TmMoO3,Tm,Mo,FALSE,2,4,1.09,0.65,cubic,-2.195,0.740,0.004,12.268,0.000,3.944,3.944,3.944,90.0,90.0,90.0,1.260
TmNaO3,Tm,Na,FALSE,not balanced,not balanced,1.05,1.02,cubic,-1.364,1.181,0.400,11.814,0.000,3.895,3.895,3.895,90.0,90.0,90.0,-3.166
TmNbO3,Tm,Nb,FALSE,2,4,1.09,0.68,cubic,-2.518,0.729,0.000,12.974,0.000,4.018,4.018,4.018,90.0,90.0,90.0,2.767
TmNdO3,Tm,Nd,FALSE,not balanced,not balanced,1.05,0.98,cubic,-2.389,1.388,0.000,17.550,0.000,4.444,4.444,4.444,90.0,90.0,90.0,-2.718
TmNiO3,Tm,Ni,TRUE,3,3,1.05,0.60,orthorhombic,-2.435,0.028,0.200,10.252,0.000,5.096,5.510,7.302,90.0,90.0,90.0,0.857
TmNpO3,Tm,Np,FALSE,element not in BV,element not in BV,1.05,0.86,cubic,-2.494,1.230,0.751,17.067,0.000,4.403,4.403,4.403,90.0,90.0,90.0,1.718
TmOsO3,Tm,Os,FALSE,element not in BV,element not in BV,1.05,0.57,cubic,-1.611,0.877,0.005,12.089,0.000,3.924,3.924,3.924,90.0,90.0,90.0,-0.346
TmPaO3,Tm,Pa,FALSE,element not in BV,element not in BV,1.05,0.91,cubic,-2.319,1.041,0.248,17.753,0.000,4.461,4.461,4.461,90.0,90.0,90.0,2.359
TmPbO3,Tm,Pb,FALSE,2,4,1.09,0.78,orthorhombic,-2.362,0.221,0.000,14.592,0.000,5.734,6.002,8.481,90.0,90.0,90.0,0.490
TmPdO3,Tm,Pd,FALSE,2,4,1.09,0.62,cubic,-1.642,0.583,0.000,12.206,0.000,3.937,3.937,3.937,90.0,90.0,90.0,-0.365
TmPmO3,Tm,Pm,FALSE,element not in BV,element not in BV,1.05,0.97,cubic,-2.480,1.324,0.000,17.048,0.000,4.401,4.401,4.401,90.0,90.0,90.0,-2.151
TmPrO3,Tm,Pr,FALSE,2,4,1.09,0.85,cubic,-2.304,1.450,0.000,18.020,0.000,4.483,4.483,4.483,90.0,90.0,90.0,-3.262