Chemical formula,A,B,In literature,Valence A,Valence B,Radius A [ang],Radius B [ang],Lowest distortion,Formation energy [eV/atom],Stability [eV/atom],Magnetic moment [mu_B],Volume per atom [A^3/atom],Band gap [eV],a [ang],b [ang],c [ang],alpha [deg],beta [deg],gamma [deg],Vacancy energy [eV/O atom]
PmRbO3,Pm,Rb,FALSE,element not in BV,element not in BV,1.14,1.52,cubic,-0.700,1.707,-0.004,16.433,0.000,4.347,4.347,4.347,90.0,90.0,90.0,-2.941
PmReO3,Pm,Re,FALSE,element not in BV,element not in BV,1.14,0.57,cubic,-2.023,0.584,0.166,12.468,0.000,3.965,3.965,3.965,90.0,90.0,90.0,1.125
PmRhO3,Pm,Rh,FALSE,element not in BV,element not in BV,1.14,0.61,orthorhombic,-2.361,-0.056,0.000,12.096,0.945,5.357,5.826,7.751,90.0,90.0,90.0,0.503
PmRuO3,Pm,Ru,FALSE,element not in BV,element not in BV,1.14,0.62,orthorhombic,-2.363,0.045,0.199,12.076,0.000,5.315,5.877,7.732,90.0,90.0,90.0,1.345
PmSbO3,Pm,Sb,FALSE,element not in BV,element not in BV,1.14,0.68,cubic,-1.884,0.744,0.000,15.117,0.000,4.228,4.228,4.228,90.0,90.0,90.0,1.667
PmScO3,Pm,Sc,FALSE,element not in BV,element not in BV,1.14,0.75,orthorhombic,-3.754,-0.012,0.000,12.764,4.694,5.531,5.788,7.973,90.0,90.0,90.0,5.290
PmSiO3,Pm,Si,FALSE,element not in BV,element not in BV,1.14,0.40,cubic,-2.682,0.539,0.000,10.493,0.000,3.744,3.744,3.744,90.0,90.0,90.0,4.692
PmSmO3,Pm,Sm,FALSE,element not in BV,element not in BV,1.14,0.96,cubic,-2.797,0.892,0.000,16.975,1.365,4.395,4.395,4.395,90.0,90.0,90.0,3.393
PmSnO3,Pm,Sn,FALSE,element not in BV,element not in BV,1.14,0.69,cubic,-2.138,0.594,0.000,14.065,0.000,4.128,4.128,4.128,90.0,90.0,90.0,2.569
PmSrO3,Pm,Sr,FALSE,element not in BV,element not in BV,1.14,1.18,cubic,-1.871,1.204,-0.001,16.873,0.000,4.386,4.386,4.386,90.0,90.0,90.0,-2.806
PmTaO3,Pm,Ta,FALSE,element not in BV,element not in BV,1.14,0.68,orthorhombic,-2.948,0.205,0.001,12.709,0.000,5.469,6.006,7.738,90.0,90.0,90.0,3.838
PmTbO3,Pm,Tb,FALSE,element not in BV,element not in BV,1.14,0.84,cubic,-2.871,0.747,0.000,15.929,1.566,4.302,4.302,4.302,90.0,90.0,90.0,4.113
PmTcO3,Pm,Tc,FALSE,element not in BV,element not in BV,1.14,0.60,orthorhombic,-2.490,0.113,0.388,12.267,0.000,5.357,5.911,7.749,90.0,90.0,90.0,1.999
PmTeO3,Pm,Te,FALSE,element not in BV,element not in BV,1.14,0.77,cubic,-1.571,0.852,0.000,15.350,0.000,4.250,4.250,4.250,90.0,90.0,90.0,1.282
PmThO3,Pm,Th,FALSE,element not in BV,element not in BV,1.14,0.94,cubic,-2.902,0.855,0.077,18.902,0.000,4.555,4.555,4.555,90.0,90.0,90.0,2.636
PmTiO3,Pm,Ti,FALSE,element not in BV,element not in BV,1.14,0.71,orthorhombic,-3.414,-0.015,0.200,11.996,0.000,5.422,5.699,7.764,90.0,90.0,90.0,5.109
PmTlO3,Pm,Tl,FALSE,element not in BV,element not in BV,1.14,1.20,cubic,-1.596,0.711,0.000,15.350,0.000,4.250,4.250,4.250,90.0,90.0,90.0,0.958
PmTmO3,Pm,Tm,FALSE,element not in BV,element not in BV,1.14,0.96,cubic,-3.209,0.595,0.000,14.903,1.964,4.208,4.208,4.208,90.0,90.0,90.0,4.699
PmUO3,Pm,U,FALSE,element not in BV,element not in BV,1.14,0.85,cubic,-2.701,0.856,0.561,16.981,0.000,4.395,4.395,4.395,90.0,90.0,90.0,2.762
PmVO3,Pm,V,FALSE,element not in BV,element not in BV,1.14,0.64,orthorhombic,-3.216,-0.062,0.400,11.970,1.257,5.418,5.702,7.749,90.0,90.0,90.0,4.295
PmWO3,Pm,W,FALSE,element not in BV,element not in BV,1.14,0.63,orthorhombic,-2.500,0.318,-0.001,12.385,0.000,5.321,6.014,7.741,90.0,90.0,90.0,2.089
PmYO3,Pm,Y,FALSE,element not in BV,element not in BV,1.14,0.90,cubic,-3.032,0.710,0.000,15.670,1.881,4.279,4.279,4.279,90.0,90.0,90.0,4.266
PmYbO3,Pm,Yb,FALSE,element not in BV,element not in BV,1.14,0.95,cubic,-2.522,0.720,-0.002,14.013,0.000,4.123,4.123,4.123,90.0,90.0,90.0,-1.352
PmZnO3,Pm,Zn,FALSE,element not in BV,element not in BV,1.14,0.74,orthorhombic,-2.395,0.103,0.000,11.806,0.000,5.364,5.746,7.660,90.0,90.0,90.0,0.243
PmZrO3,Pm,Zr,FALSE,element not in BV,element not in BV,1.14,0.72,orthorhombic,-3.348,0.135,0.100,13.409,0.000,5.618,6.138,7.777,90.0,90.0,90.0,4.558
PrAcO3,Pr,Ac,FALSE,element not in BV,element not in BV,1.18,1.12,cubic,-2.418,1.160,0.000,20.551,0.000,4.684,4.684,4.684,90.0,90.0,90.0,1.878
PrAgO3,Pr,Ag,FALSE,3,3,1.18,0.75,orthorhombic,-1.892,0.009,0.000,13.474,0.000,5.598,6.010,8.009,90.0,90.0,90.0,0.177
PrAlO3,Pr,Al,TRUE,3,3,1.18,0.54,rhombohedral,-3.500,-0.079,0.000,10.784,4.271,5.323,5.323,5.323,60.5,60.5,60.5,6.474
PrAsO3,Pr,As,FALSE,3,3,1.18,0.58,orthorhombic,-2.345,0.166,0.000,13.485,0.000,5.595,5.973,8.070,90.0,90.0,90.0,2.791
PrAuO3,Pr,Au,FALSE,element not in BV,element not in BV,1.18,0.93,orthorhombic,-1.934,-0.005,0.000,13.900,0.987,5.713,6.561,7.417,90.0,90.0,90.0,0.100
PrBO3,Pr,B,FALSE,4,2,0.96,0.27,cubic,-2.400,0.885,0.000,9.076,2.243,3.567,3.567,3.567,90.0,90.0,90.0,4.889
PrBaO3,Pr,Ba,FALSE,not balanced,not balanced,1.18,1.35,orthorhombic,-2.701,0.263,0.200,19.871,0.000,6.163,6.173,10.447,90.0,90.0,90.0,-3.370
PrBeO3,Pr,Be,FALSE,not balanced,not balanced,1.18,0.45,tetragonal,-2.698,0.276,-0.003,10.004,0.000,3.501,3.501,4.080,90.0,90.0,90.0,-0.356
PrBiO3,Pr,Bi,FALSE,3,3,1.18,1.03,cubic,-1.746,0.779,0.000,16.619,0.000,4.364,4.364,4.364,90.0,90.0,90.0,1.423
PrCaO3,Pr,Ca,FALSE,not balanced,not balanced,1.18,1.00,cubic,-2.358,0.722,0.200,14.432,0.000,4.163,4.163,4.163,90.0,90.0,90.0,-1.865
PrCdO3,Pr,Cd,FALSE,not balanced,not balanced,1.18,0.95,orthorhombic,-2.166,0.117,0.000,14.152,0.000,5.678,6.104,8.166,90.0,90.0,90.0,-0.266
PrCeO3,Pr,Ce,FALSE,3,3,1.18,1.01,cubic,-2.558,0.990,0.000,18.884,0.881,4.554,4.554,4.554,90.0,90.0,90.0,2.634
PrCoO3,Pr,Co,TRUE,3,3,1.18,0.61,orthorhombic,-2.415,-0.001,0.000,11.367,1.178,5.390,5.477,7.701,90.0,90.0,90.0,-
PrCrO3,Pr,Cr,TRUE,3,3,1.18,0.62,orthorhombic,-3.104,-0.075,0.600,11.895,2.237,5.462,5.596,7.782,90.0,90.0,90.0,4.766
PrCsO3,Pr,Cs,FALSE,not balanced,not balanced,1.18,1.67,-,-,-,-,-,-,-,-,-,-,-,-,-
PrCuO3,Pr,Cu,FALSE,3,3,1.18,0.54,orthorhombic,-2.172,-0.052,0.000,11.270,0.000,5.414,5.434,7.661,90.0,90.0,90.0,1.338
PrDyO3,Pr,Dy,FALSE,3,3,1.18,0.91,cubic,-3.123,0.590,0.000,15.805,1.646,4.291,4.291,4.291,90.0,90.0,90.0,4.491
PrErO3,Pr,Er,FALSE,3,3,1.18,0.89,orthorhombic,-3.704,0.033,0.000,14.623,4.898,5.781,6.039,8.377,90.0,90.0,90.0,4.728
PrEuO3,Pr,Eu,FALSE,3,3,1.18,0.95,cubic,-2.362,0.785,0.141,15.752,0.000,4.287,4.287,4.287,90.0,90.0,90.0,-1.198
PrFeO3,Pr,Fe,TRUE,3,3,1.18,0.65,orthorhombic,-2.690,-0.077,1.000,12.066,1.048,5.477,5.641,7.811,90.0,90.0,90.0,3.968
PrGaO3,Pr,Ga,TRUE,3,3,1.18,0.62,orthorhombic,-2.875,-0.036,0.000,11.788,3.774,5.468,5.548,7.771,90.0,90.0,90.0,4.936
PrGdO3,Pr,Gd,FALSE,3,3,1.18,0.94,cubic,-3.016,0.668,0.000,16.368,1.533,4.342,4.342,4.342,90.0,90.0,90.0,4.197
PrGeO3,Pr,Ge,FALSE,3,3,1.18,0.63,orthorhombic,-2.496,0.142,0.000,12.886,0.000,5.533,5.846,7.967,90.0,90.0,90.0,3.236
PrHfO3,Pr,Hf,FALSE,3,3,1.18,0.71,orthorhombic,-3.402,0.114,0.000,13.311,0.000,5.589,5.595,8.514,90.0,90.0,90.0,5.113
PrHgO3,Pr,Hg,FALSE,not balanced,not balanced,1.18,1.11,cubic,-1.395,0.575,0.000,15.022,0.000,4.219,4.219,4.219,90.0,90.0,90.0,-0.245
PrHoO3,Pr,Ho,FALSE,3,3,1.18,0.90,cubic,-3.171,0.554,0.000,15.540,1.831,4.267,4.267,4.267,90.0,90.0,90.0,4.602
PrInO3,Pr,In,FALSE,3,3,1.18,0.80,orthorhombic,-2.705,0.005,0.000,13.896,2.989,5.670,5.968,8.212,90.0,90.0,90.0,3.343
PrIrO3,Pr,Ir,FALSE,3,3,1.18,0.68,orthorhombic,-2.181,0.104,0.000,12.563,0.873,5.402,5.928,7.846,90.0,90.0,90.0,0.203
PrKO3,Pr,K,FALSE,not balanced,not balanced,1.18,1.38,orthorhombic,-1.922,0.447,0.400,19.251,0.000,6.210,6.319,9.813,90.0,90.0,90.0,-3.324
PrLaO3,Pr,La,FALSE,3,3,1.18,1.03,cubic,-2.680,0.965,0.000,18.627,0.501,4.533,4.533,4.533,90.0,90.0,90.0,2.547
PrLiO3,Pr,Li,FALSE,not balanced,not balanced,1.18,0.76,orthorhombic,-2.201,0.268,0.400,11.365,0.000,5.187,5.810,7.543,90.0,90.0,90.0,-0.679
PrLuO3,Pr,Lu,TRUE,3,3,1.18,0.86,orthorhombic,-3.755,0.013,0.000,14.171,5.018,5.729,5.966,8.292,90.0,90.0,90.0,5.041
PrMgO3,Pr,Mg,FALSE,not balanced,not balanced,1.18,0.72,orthorhombic,-2.843,0.132,0.200,12.191,0.000,5.412,5.782,7.792,90.0,90.0,90.0,-0.545
PrMnO3,Pr,Mn,TRUE,3,3,1.18,0.65,orthorhombic,-2.868,0.002,0.800,12.077,0.000,5.468,5.685,7.770,90.0,90.0,90.0,3.883
PrMoO3,Pr,Mo,FALSE,3,3,1.18,0.69,orthorhombic,-2.596,0.189,0.549,13.072,0.000,5.531,5.928,7.974,90.0,90.0,90.0,2.939
PrNaO3,Pr,Na,FALSE,not balanced,not balanced,1.18,1.02,cubic,-1.605,0.766,0.400,12.765,0.000,3.996,3.996,3.996,90.0,90.0,90.0,-1.835
PrNbO3,Pr,Nb,FALSE,3,3,1.18,0.72,orthorhombic,-2.913,0.193,0.001,13.202,0.000,5.542,6.032,7.899,90.0,90.0,90.0,4.097
PrNdO3,Pr,Nd,FALSE,3,3,1.18,0.98,cubic,-2.732,0.866,0.000,17.890,1.091,4.472,4.472,4.472,90.0,90.0,90.0,3.249
PrNiO3,Pr,Ni,TRUE,3,3,1.18,0.60,orthorhombic,-2.312,-0.028,0.198,11.169,0.000,5.395,5.423,7.636,90.0,90.0,90.0,1.493
PrNpO3,Pr,Np,FALSE,element not in BV,element not in BV,1.18,0.86,cubic,-2.791,0.737,0.786,17.439,0.000,4.434,4.434,4.434,90.0,90.0,90.0,3.565
PrOsO3,Pr,Os,FALSE,element not in BV,element not in BV,1.18,0.57,cubic,-1.849,0.504,0.002,12.572,0.000,3.976,3.976,3.976,90.0,90.0,90.0,1.225
PrPaO3,Pr,Pa,FALSE,element not in BV,element not in BV,1.18,0.91,cubic,-2.562,0.621,0.299,17.963,0.000,4.478,4.478,4.478,90.0,90.0,90.0,-
PrPbO3,Pr,Pb,FALSE,not balanced,not balanced,1.18,0.99,cubic,-1.686,0.719,0.000,15.229,0.000,4.239,4.239,4.239,90.0,90.0,90.0,-
PrPdO3,Pr,Pd,FALSE,2,4,1.18,0.62,orthorhombic,-2.127,0.010,0.001,12.876,0.000,5.552,5.951,7.794,90.0,90.0,90.0,0.750
PrPmO3,Pr,Pm,FALSE,element not in BV,element not in BV,1.18,0.97,cubic,-2.818,0.808,0.000,17.418,1.093,4.433,4.433,4.433,90.0,90.0,90.0,3.550
Pr2O3,Pr,Pr,FALSE,3,3,1.18,0.99,cubic,-2.652,0.924,0.000,18.345,0.910,4.510,4.510,4.510,90.0,90.0,90.0,2.960
PrPtO3,Pr,Pt,FALSE,element not in BV,element not in BV,1.18,0.67,orthorhombic,-2.058,0.078,0.000,13.052,0.000,5.597,6.114,7.629,90.0,90.0,90.0,0.349
PrPuO3,Pr,Pu,FALSE,element not in BV,element not in BV,1.18,0.83,cubic,-2.825,0.780,0.928,16.812,0.000,4.381,4.381,4.381,90.0,90.0,90.0,2.766
PrRbO3,Pr,Rb,FALSE,not balanced,not balanced,1.18,1.52,orthorhombic,-2.061,0.295,0.000,19.587,1.117,6.505,6.576,9.158,90.0,90.0,90.0,-2.467
PrReO3,Pr,Re,FALSE,3,3,1.18,0.63,cubic,-2.061,0.541,0.177,12.642,0.000,3.983,3.983,3.983,90.0,90.0,90.0,1.618
PrRhO3,Pr,Rh,TRUE,3,3,1.18,0.67,orthorhombic,-2.316,-0.060,0.000,12.426,0.708,5.421,5.849,7.839,90.0,90.0,90.0,0.878
PrRuO3,Pr,Ru,TRUE,3,3,1.18,0.68,orthorhombic,-2.320,0.072,0.198,12.405,0.000,5.384,5.895,7.818,90.0,90.0,90.0,1.730
PrSbO3,Pr,Sb,FALSE,3,3,1.18,0.76,cubic,-1.946,0.711,0.000,15.329,0.000,4.248,4.248,4.248,90.0,90.0,90.0,1.926
PrScO3,Pr,Sc,TRUE,3,3,1.18,0.75,orthorhombic,-3.721,-0.029,0.000,13.073,4.487,5.596,5.811,8.040,90.0,90.0,90.0,5.422
PrSiO3,Pr,Si,FALSE,3,3,1.18,0.40,tetragonal,-2.737,0.434,0.001,11.650,0.000,3.579,3.579,4.549,90.0,90.0,90.0,4.673
PrSmO3,Pr,Sm,FALSE,3,3,1.18,0.96,cubic,-2.872,0.767,0.000,17.130,1.274,4.408,4.408,4.408,90.0,90.0,90.0,3.759
PrSnO3,Pr,Sn,FALSE,3,3,1.18,0.69,cubic,-2.187,0.571,0.000,14.300,0.000,4.151,4.151,4.151,90.0,90.0,90.0,2.737
PrSrO3,Pr,Sr,FALSE,not balanced,not balanced,1.18,1.18,cubic,-1.946,1.078,-0.003,16.936,0.000,4.391,4.391,4.391,90.0,90.0,90.0,-2.307
PrTaO3,Pr,Ta,FALSE,3,3,1.18,0.72,orthorhombic,-2.914,0.311,0.000,13.054,0.000,5.526,6.018,7.850,90.0,90.0,90.0,4.180
PrTbO3,Pr,Tb,FALSE,3,3,1.18,0.92,cubic,-2.941,0.628,0.000,16.073,1.649,4.315,4.315,4.315,90.0,90.0,90.0,4.361
PrTcO3,Pr,Tc,FALSE,element not in BV,element not in BV,1.18,0.60,orthorhombic,-2.451,0.103,0.390,12.616,0.000,5.428,5.922,7.849,90.0,90.0,90.0,2.453
PrTeO3,Pr,Te,FALSE,2,4,1.18,0.97,cubic,-1.633,0.809,0.000,15.529,0.000,4.266,4.266,4.266,90.0,90.0,90.0,1.546
PrThO3,Pr,Th,FALSE,not balanced,not balanced,1.18,0.94,cubic,-2.963,0.771,0.057,18.960,0.000,4.560,4.560,4.560,90.0,90.0,90.0,3.520
PrTiO3,Pr,Ti,TRUE,3,3,1.18,0.67,orthorhombic,-3.382,-0.033,0.194,12.264,0.000,5.493,5.695,7.840,90.0,90.0,90.0,5.310
PrTlO3,Pr,Tl,FALSE,3,3,1.18,0.89,orthorhombic,-2.214,0.043,0.000,14.972,1.132,5.774,6.149,8.433,90.0,90.0,90.0,1.197
PrTmO3,Pr,Tm,FALSE,3,3,1.18,0.88,orthorhombic,-3.729,0.025,0.000,14.447,5.007,5.763,6.005,8.349,90.0,90.0,90.0,4.856
PrUO3,Pr,U,FALSE,3,3,1.18,1.03,cubic,-2.754,0.752,0.546,16.999,0.000,4.397,4.397,4.397,90.0,90.0,90.0,2.997
PrVO3,Pr,V,TRUE,3,3,1.18,0.64,orthorhombic,-3.180,-0.077,0.400,12.254,1.333,5.482,5.721,7.814,90.0,90.0,90.0,4.458
PrWO3,Pr,W,FALSE,3,3,1.18,0.66,orthorhombic,-2.469,0.386,0.001,12.729,0.000,5.371,6.049,7.836,90.0,90.0,90.0,2.545
PrYO3,Pr,Y,FALSE,3,3,1.18,0.90,cubic,-3.100,0.593,0.000,15.797,2.003,4.291,4.291,4.291,90.0,90.0,90.0,4.454
PrYbO3,Pr,Yb,TRUE,3,3,1.18,0.87,cubic,-2.584,0.608,0.064,14.208,0.000,4.142,4.142,4.142,90.0,90.0,90.0,-1.033
PrZnO3,Pr,Zn,FALSE,not balanced,not balanced,1.18,0.74,orthorhombic,-2.361,0.087,0.000,12.082,0.000,5.437,5.724,7.766,90.0,90.0,90.0,0.430
PrZrO3,Pr,Zr,FALSE,3,3,1.18,0.72,orthorhombic,-3.320,0.152,0.167,13.899,0.000,5.681,6.093,8.031,90.0,90.0,90.0,4.757
PtAcO3,Pt,Ac,FALSE,element not in BV,element not in BV,0.67,1.12,orthorhombic,-1.849,0.289,0.000,15.994,0.000,5.963,6.430,8.342,90.0,90.0,90.0,-7.392
PtAgO3,Pt,Ag,FALSE,element not in BV,element not in BV,0.67,0.95,cubic,0.763,1.313,0.536,12.835,0.000,4.004,4.004,4.004,90.0,90.0,90.0,-7.469
PtAlO3,Pt,Al,FALSE,element not in BV,element not in BV,0.67,0.54,cubic,-1.139,0.841,0.307,9.896,0.000,3.671,3.671,3.671,90.0,90.0,90.0,-1.320
PtAsO3,Pt,As,FALSE,element not in BV,element not in BV,0.67,0.52,cubic,-0.136,0.941,0.322,11.036,0.000,3.807,3.807,3.807,90.0,90.0,90.0,0.004
PtAuO3,Pt,Au,FALSE,element not in BV,element not in BV,0.67,0.93,cubic,0.766,1.304,0.469,13.191,0.000,4.040,4.040,4.040,90.0,90.0,90.0,-5.476
PtBO3,Pt,B,FALSE,element not in BV,element not in BV,0.67,0.27,cubic,-0.159,1.500,0.086,8.000,0.000,3.420,3.420,3.420,90.0,90.0,90.0,-1.088
PtBaO3,Pt,Ba,FALSE,element not in BV,element not in BV,0.67,1.35,orthorhombic,-1.432,0.173,0.000,18.950,0.880,6.334,6.488,9.222,90.0,90.0,90.0,-12.328
PtBeO3,Pt,Be,FALSE,element not in BV,element not in BV,0.67,0.45,cubic,-0.554,1.077,0.001,8.348,0.000,3.469,3.469,3.469,90.0,90.0,90.0,-3.844
PtBiO3,Pt,Bi,FALSE,element not in BV,element not in BV,0.67,0.90,cubic,0.027,1.157,0.286,14.589,0.000,4.178,4.178,4.178,90.0,90.0,90.0,-4.385
PtCaO3,Pt,Ca,FALSE,element not in BV,element not in BV,0.67,1.00,rhombohedral,-1.463,0.380,-0.001,14.441,0.544,6.031,6.031,6.031,57.0,57.0,57.0,-10.427
PtCdO3,Pt,Cd,FALSE,element not in BV,element not in BV,0.67,0.95,cubic,0.584,1.549,0.591,13.814,0.000,4.103,4.103,4.103,90.0,90.0,90.0,-9.196
PtCeO3,Pt,Ce,FALSE,element not in BV,element not in BV,0.67,0.94,cubic,-0.525,1.584,0.607,18.596,0.000,4.530,4.530,4.530,90.0,90.0,90.0,-7.929
PtCoO3,Pt,Co,FALSE,element not in BV,element not in BV,0.67,0.63,cubic,0.018,1.042,0.387,10.077,0.000,3.694,3.694,3.694,90.0,90.0,90.0,-4.105
PtCrO3,Pt,Cr,FALSE,element not in BV,element not in BV,0.67,0.58,cubic,-0.692,0.897,0.003,10.807,0.000,3.781,3.781,3.781,90.0,90.0,90.0,-0.677
PtCsO3,Pt,Cs,FALSE,element not in BV,element not in BV,0.67,1.67,orthorhombic,-0.823,0.180,0.200,22.346,0.000,5.953,7.003,10.721,90.0,90.0,90.0,-
PtCuO3,Pt,Cu,FALSE,element not in BV,element not in BV,0.67,0.68,cubic,0.300,1.067,0.378,10.365,0.000,3.728,3.728,3.728,90.0,90.0,90.0,-4.740
PtDyO3,Pt,Dy,FALSE,element not in BV,element not in BV,0.67,0.99,cubic,-0.880,1.393,0.603,16.025,0.000,4.311,4.311,4.311,90.0,90.0,90.0,-6.575
PtErO3,Pt,Er,FALSE,element not in BV,element not in BV,0.67,0.89,cubic,-0.947,1.349,0.600,15.557,0.000,4.269,4.269,4.269,90.0,90.0,90.0,-6.180
PtEuO3,Pt,Eu,FALSE,element not in BV,element not in BV,0.67,1.06,rhombohedral,-1.596,0.368,0.000,14.649,0.471,5.816,5.816,5.816,62.4,62.4,62.4,-10.615
PtFeO3,Pt,Fe,FALSE,element not in BV,element not in BV,0.67,0.67,cubic,-0.244,0.928,1.357,10.994,0.000,3.802,3.802,3.802,90.0,90.0,90.0,-3.036
PtGaO3,Pt,Ga,FALSE,element not in BV,element not in BV,0.67,0.62,cubic,-0.389,1.010,0.592,11.079,0.000,3.812,3.812,3.812,90.0,90.0,90.0,-3.192
PtGdO3,Pt,Gd,FALSE,element not in BV,element not in BV,0.67,0.94,cubic,-0.804,1.440,0.602,16.496,0.000,4.353,4.353,4.353,90.0,90.0,90.0,-6.960
PtGeO3,Pt,Ge,FALSE,element not in BV,element not in BV,0.67,0.63,cubic,-0.466,0.904,0.402,10.536,0.000,3.749,3.749,3.749,90.0,90.0,90.0,0.429
PtHfO3,Pt,Hf,FALSE,element not in BV,element not in BV,0.67,0.71,cubic,-1.611,0.929,0.402,13.416,0.000,4.063,4.063,4.063,90.0,90.0,90.0,-0.704
PtHgO3,Pt,Hg,FALSE,element not in BV,element not in BV,0.67,1.11,cubic,0.889,1.516,0.481,14.225,0.000,4.143,4.143,4.143,90.0,90.0,90.0,-8.920
PtHoO3,Pt,Ho,FALSE,element not in BV,element not in BV,0.67,0.90,cubic,-0.914,1.371,0.600,15.784,0.000,4.289,4.289,4.289,90.0,90.0,90.0,-6.385
PtInO3,Pt,In,FALSE,element not in BV,element not in BV,0.67,0.80,cubic,0.005,1.275,0.601,13.966,0.000,4.118,4.118,4.118,90.0,90.0,90.0,-5.840
PtIrO3,Pt,Ir,FALSE,element not in BV,element not in BV,0.67,0.63,cubic,0.158,1.034,0.263,11.801,0.000,3.893,3.893,3.893,90.0,90.0,90.0,-0.424
PtKO3,Pt,K,FALSE,element not in BV,element not in BV,0.67,1.38,orthorhombic,-0.817,0.257,0.200,18.886,0.276,6.311,6.337,9.445,90.0,90.0,90.0,-10.896
PtLaO3,Pt,La,FALSE,element not in BV,element not in BV,0.67,1.03,cubic,-0.641,1.564,0.303,17.902,0.000,4.473,4.473,4.473,90.0,90.0,90.0,-7.720
PtLiO3,Pt,Li,FALSE,element not in BV,element not in BV,0.67,0.76,cubic,0.179,1.334,-0.216,8.821,0.000,3.533,3.533,3.533,90.0,90.0,90.0,-7.777
PtLuO3,Pt,Lu,FALSE,element not in BV,element not in BV,0.67,0.86,cubic,-1.049,1.280,0.601,14.841,0.000,4.202,4.202,4.202,90.0,90.0,90.0,-5.579
PtMgO3,Pt,Mg,FALSE,element not in BV,element not in BV,0.67,0.72,cubic,-0.384,1.239,0.292,10.844,0.000,3.785,3.785,3.785,90.0,90.0,90.0,-6.597
PtMnO3,Pt,Mn,FALSE,element not in BV,element not in BV,0.67,0.62,cubic,-0.436,0.947,1.137,10.859,0.000,3.787,3.787,3.787,90.0,90.0,90.0,-2.956
PtMoO3,Pt,Mo,FALSE,element not in BV,element not in BV,0.67,0.62,cubic,-0.859,0.871,0.137,11.937,0.000,3.908,3.908,3.908,90.0,90.0,90.0,2.928
PtNaO3,Pt,Na,FALSE,element not in BV,element not in BV,0.67,1.02,rhombohedral,-0.749,0.356,0.200,13.769,0.000,5.798,5.798,5.798,60.0,60.0,60.0,-10.348
PtNbO3,Pt,Nb,FALSE,element not in BV,element not in BV,0.67,0.68,cubic,-1.294,0.807,0.207,12.725,0.000,3.992,3.992,3.992,90.0,90.0,90.0,1.507
PtNdO3,Pt,Nd,FALSE,element not in BV,element not in BV,0.67,0.98,cubic,-0.623,1.622,0.606,17.700,0.000,4.456,4.456,4.456,90.0,90.0,90.0,-7.658
PtNiO3,Pt,Ni,FALSE,element not in BV,element not in BV,0.67,0.59,cubic,0.151,1.821,0.405,10.141,0.000,3.701,3.701,3.701,90.0,90.0,90.0,-4.414
PtNpO3,Pt,Np,FALSE,element not in BV,element not in BV,0.67,0.86,cubic,-1.201,1.262,0.190,18.836,0.000,4.550,4.550,4.550,90.0,90.0,90.0,-2.614
PtOsO3,Pt,Os,FALSE,element not in BV,element not in BV,0.67,0.57,cubic,-0.139,0.842,0.039,11.611,0.000,3.872,3.872,3.872,90.0,90.0,90.0,2.026
PtPaO3,Pt,Pa,FALSE,element not in BV,element not in BV,0.67,0.91,cubic,-1.507,0.589,0.212,16.400,0.000,4.344,4.344,4.344,90.0,90.0,90.0,1.262
PtPbO3,Pt,Pb,FALSE,element not in BV,element not in BV,0.67,0.99,rhombohedral,-0.623,0.386,0.000,15.464,0.000,5.888,5.888,5.888,63.2,63.2,63.2,-5.210
PtPdO3,Pt,Pd,FALSE,element not in BV,element not in BV,0.67,0.75,cubic,0.440,1.144,0.569,12.178,0.000,3.934,3.934,3.934,90.0,90.0,90.0,-3.290
PtPmO3,Pt,Pm,FALSE,element not in BV,element not in BV,0.67,0.97,cubic,-0.676,1.511,0.605,17.290,0.000,4.422,4.422,4.422,90.0,90.0,90.0,-7.492
PtPrO3,Pt,Pr,FALSE,element not in BV,element not in BV,0.67,0.92,cubic,-0.578,1.558,0.605,18.107,0.000,4.490,4.490,4.490,90.0,90.0,90.0,-7.795
Pt2O3,Pt,Pt,FALSE,element not in BV,element not in BV,0.67,0.67,cubic,0.430,1.126,0.534,12.402,0.000,3.958,3.958,3.958,90.0,90.0,90.0,-
PtPuO3,Pt,Pu,FALSE,element not in BV,element not in BV,0.67,0.83,cubic,-1.197,0.996,0.388,15.714,0.000,4.283,4.283,4.283,90.0,90.0,90.0,-2.125
PtRbO3,Pt,Rb,FALSE,element not in BV,element not in BV,0.67,1.52,orthorhombic,-0.819,0.213,0.200,21.019,0.000,6.436,6.599,9.897,90.0,90.0,90.0,-15.058
PtReO3,Pt,Re,FALSE,element not in BV,element not in BV,0.67,0.57,cubic,-0.552,0.968,0.047,11.697,0.000,3.882,3.882,3.882,90.0,90.0,90.0,3.267