Chemical formula,A,B,In literature,Valence A,Valence B,Radius A [ang],Radius B [ang],Lowest distortion,Formation energy [eV/atom],Stability [eV/atom],Magnetic moment [mu_B],Volume per atom [A^3/atom],Band gap [eV],a [ang],b [ang],c [ang],alpha [deg],beta [deg],gamma [deg],Vacancy energy [eV/O atom]
PtRhO3,Pt,Rh,FALSE,element not in BV,element not in BV,0.67,0.61,cubic,0.171,1.030,0.493,11.749,0.000,3.887,3.887,3.887,90.0,90.0,90.0,0.183
PtRuO3,Pt,Ru,FALSE,element not in BV,element not in BV,0.67,0.62,cubic,-0.105,0.892,0.075,11.516,0.000,3.862,3.862,3.862,90.0,90.0,90.0,1.596
PtSbO3,Pt,Sb,FALSE,element not in BV,element not in BV,0.67,0.68,cubic,-0.386,0.842,0.246,12.614,0.000,3.980,3.980,3.980,90.0,90.0,90.0,1.165
PtScO3,Pt,Sc,FALSE,element not in BV,element not in BV,0.67,0.75,cubic,-1.116,1.136,0.599,13.047,0.000,4.026,4.026,4.026,90.0,90.0,90.0,-4.400
PtSiO3,Pt,Si,FALSE,element not in BV,element not in BV,0.67,0.40,cubic,-1.065,1.016,0.400,9.309,0.000,3.597,3.597,3.597,90.0,90.0,90.0,1.734
PtSmO3,Pt,Sm,FALSE,element not in BV,element not in BV,0.67,0.96,cubic,-0.705,1.493,0.599,17.067,0.000,4.403,4.403,4.403,90.0,90.0,90.0,-7.370
PtSnO3,Pt,Sn,FALSE,element not in BV,element not in BV,0.67,0.69,cubic,-0.433,0.976,0.401,13.004,0.000,4.021,4.021,4.021,90.0,90.0,90.0,-1.317
PtSrO3,Pt,Sr,FALSE,element not in BV,element not in BV,0.67,1.18,rhombohedral,-1.450,0.258,0.000,16.181,0.793,6.063,6.063,6.063,61.2,61.2,61.2,-11.566
PtTaO3,Pt,Ta,FALSE,element not in BV,element not in BV,0.67,0.68,cubic,-1.535,0.774,0.207,12.514,0.000,3.970,3.970,3.970,90.0,90.0,90.0,2.354
PtTbO3,Pt,Tb,FALSE,element not in BV,element not in BV,0.67,0.84,cubic,-0.712,1.416,0.602,16.265,0.000,4.333,4.333,4.333,90.0,90.0,90.0,-6.760
PtTcO3,Pt,Tc,FALSE,element not in BV,element not in BV,0.67,0.60,cubic,-0.491,0.779,-0.008,11.602,0.000,3.871,3.871,3.871,90.0,90.0,90.0,2.557
PtTeO3,Pt,Te,FALSE,element not in BV,element not in BV,0.67,0.77,cubic,-0.061,0.956,0.235,13.399,0.000,4.061,4.061,4.061,90.0,90.0,90.0,-0.076
PtThO3,Pt,Th,FALSE,element not in BV,element not in BV,0.67,0.94,cubic,-1.411,1.368,0.406,18.350,0.000,4.510,4.510,4.510,90.0,90.0,90.0,-3.568
PtTiO3,Pt,Ti,FALSE,element not in BV,element not in BV,0.67,0.71,cubic,-1.353,0.830,0.400,11.491,0.000,3.859,3.859,3.859,90.0,90.0,90.0,-0.195
PtTlO3,Pt,Tl,FALSE,element not in BV,element not in BV,0.67,1.20,cubic,0.599,1.527,0.515,14.842,0.000,4.202,4.202,4.202,90.0,90.0,90.0,-7.655
PtTmO3,Pt,Tm,FALSE,element not in BV,element not in BV,0.67,0.96,cubic,-0.992,1.322,0.601,15.274,0.000,4.243,4.243,4.243,90.0,90.0,90.0,-5.956
PtUO3,Pt,U,FALSE,element not in BV,element not in BV,0.67,0.85,cubic,-1.750,0.785,-0.023,15.810,0.000,4.292,4.292,4.292,90.0,90.0,90.0,1.971
PtVO3,Pt,V,FALSE,element not in BV,element not in BV,0.67,0.64,cubic,-0.908,0.831,0.090,10.826,0.000,3.783,3.783,3.783,90.0,90.0,90.0,-0.296
PtWO3,Pt,W,FALSE,element not in BV,element not in BV,0.67,0.63,cubic,-1.000,0.956,0.109,11.948,0.000,3.909,3.909,3.909,90.0,90.0,90.0,3.677
PtYO3,Pt,Y,FALSE,element not in BV,element not in BV,0.67,0.90,cubic,-0.857,1.395,0.602,16.194,0.000,4.326,4.326,4.326,90.0,90.0,90.0,-6.524
PtYbO3,Pt,Yb,FALSE,element not in BV,element not in BV,0.67,0.95,orthorhombic,-1.599,0.381,0.000,12.428,0.574,5.204,5.605,8.522,90.0,90.0,90.0,-9.650
PtZnO3,Pt,Zn,FALSE,element not in BV,element not in BV,0.67,0.74,cubic,0.158,1.263,0.684,11.249,0.000,3.831,3.831,3.831,90.0,90.0,90.0,-6.585
PtZrO3,Pt,Zr,FALSE,element not in BV,element not in BV,0.67,0.72,cubic,-1.423,0.994,0.402,13.994,0.000,4.121,4.121,4.121,90.0,90.0,90.0,-1.454
PuAcO3,Pu,Ac,FALSE,element not in BV,element not in BV,0.96,1.12,-,-,-,-,-,-,-,-,-,-,-,-,-
PuAgO3,Pu,Ag,FALSE,element not in BV,element not in BV,0.96,0.95,cubic,-1.406,0.656,0.989,13.376,0.000,4.059,4.059,4.059,90.0,90.0,90.0,-
PuAlO3,Pu,Al,FALSE,element not in BV,element not in BV,0.96,0.54,orthorhombic,-3.522,-0.073,1.000,10.596,3.199,5.307,5.329,7.493,90.0,90.0,90.0,4.571
PuAsO3,Pu,As,FALSE,element not in BV,element not in BV,0.96,0.52,cubic,-1.955,0.585,1.082,12.970,0.000,4.018,4.018,4.018,90.0,90.0,90.0,-
PuAuO3,Pu,Au,FALSE,element not in BV,element not in BV,0.96,0.93,cubic,-1.293,0.757,1.036,13.967,0.000,4.118,4.118,4.118,90.0,90.0,90.0,-
PuBO3,Pu,B,FALSE,element not in BV,element not in BV,0.96,0.27,cubic,-2.233,0.895,0.989,9.013,0.000,3.559,3.559,3.559,90.0,90.0,90.0,-
PuBaO3,Pu,Ba,FALSE,element not in BV,element not in BV,0.96,1.35,orthorhombic,-2.951,0.350,0.800,18.127,1.556,6.681,6.709,8.087,90.0,90.0,90.0,-
PuBeO3,Pu,Be,FALSE,element not in BV,element not in BV,0.96,0.45,orthorhombic,-2.941,0.202,0.800,9.218,1.431,5.047,5.068,7.207,90.0,90.0,90.0,1.850
PuBiO3,Pu,Bi,FALSE,element not in BV,element not in BV,0.96,0.90,cubic,-1.700,0.853,1.123,16.608,0.000,4.363,4.363,4.363,90.0,90.0,90.0,-
PuCaO3,Pu,Ca,FALSE,element not in BV,element not in BV,0.96,1.00,-,-,-,-,-,-,-,-,-,-,-,-,-
PuCdO3,Pu,Cd,FALSE,element not in BV,element not in BV,0.96,0.95,cubic,-1.589,0.906,0.970,14.100,0.000,4.131,4.131,4.131,90.0,90.0,90.0,-
PuCeO3,Pu,Ce,FALSE,element not in BV,element not in BV,0.96,0.94,cubic,-2.388,1.188,1.000,19.932,0.000,4.636,4.636,4.636,90.0,90.0,90.0,-
PuCoO3,Pu,Co,FALSE,element not in BV,element not in BV,0.96,0.63,-,-,-,-,-,-,-,-,-,-,-,-,-
PuCrO3,Pu,Cr,TRUE,element not in BV,element not in BV,0.96,0.58,orthorhombic,-3.120,-0.063,1.600,11.682,1.570,5.463,5.529,7.735,90.0,90.0,90.0,-
PuCsO3,Pu,Cs,FALSE,element not in BV,element not in BV,0.96,1.67,-,-,-,-,-,-,-,-,-,-,-,-,-
PuCuO3,Pu,Cu,FALSE,element not in BV,element not in BV,0.96,0.68,-,-,-,-,-,-,-,-,-,-,-,-,-
PuDyO3,Pu,Dy,FALSE,element not in BV,element not in BV,0.96,0.99,cubic,-2.920,0.822,1.001,15.802,0.402,4.291,4.291,4.291,90.0,90.0,90.0,-
PuErO3,Pu,Er,FALSE,element not in BV,element not in BV,0.96,0.89,cubic,-3.012,0.753,1.000,15.308,0.619,4.246,4.246,4.246,90.0,90.0,90.0,-
PuEuO3,Pu,Eu,FALSE,element not in BV,element not in BV,0.96,1.06,orthorhombic,-3.269,0.233,0.800,15.168,1.641,6.036,6.271,8.015,90.0,90.0,90.0,-
PuFeO3,Pu,Fe,FALSE,element not in BV,element not in BV,0.96,0.67,orthorhombic,-2.704,-0.062,2.000,11.969,0.998,5.481,5.639,7.745,90.0,90.0,90.0,-
PuGaO3,Pu,Ga,FALSE,element not in BV,element not in BV,0.96,0.62,orthorhombic,-2.895,-0.028,1.000,11.669,2.583,5.473,5.523,7.721,90.0,90.0,90.0,-
PuGdO3,Pu,Gd,FALSE,element not in BV,element not in BV,0.96,0.94,cubic,-2.817,0.896,0.997,16.713,0.000,4.372,4.372,4.372,90.0,90.0,90.0,-
PuGeO3,Pu,Ge,FALSE,element not in BV,element not in BV,0.96,0.63,orthorhombic,-2.513,0.154,1.001,12.736,0.000,5.557,5.795,7.910,90.0,90.0,90.0,-
PuHfO3,Pu,Hf,FALSE,element not in BV,element not in BV,0.96,0.71,orthorhombic,-3.577,-0.033,1.200,13.513,0.775,5.721,5.789,8.161,90.0,90.0,90.0,3.981
PuHgO3,Pu,Hg,FALSE,element not in BV,element not in BV,0.96,1.11,cubic,-1.196,0.970,1.027,14.877,0.000,4.206,4.206,4.206,90.0,90.0,90.0,-
PuHoO3,Pu,Ho,FALSE,element not in BV,element not in BV,0.96,0.90,cubic,-2.967,0.786,1.001,15.539,0.000,4.267,4.267,4.267,90.0,90.0,90.0,-
PuInO3,Pu,In,FALSE,element not in BV,element not in BV,0.96,0.80,cubic,-2.130,0.609,1.000,13.925,0.593,4.114,4.114,4.114,90.0,90.0,90.0,-
PuIrO3,Pu,Ir,FALSE,element not in BV,element not in BV,0.96,0.63,-,-,-,-,-,-,-,-,-,-,-,-,-
PuKO3,Pu,K,FALSE,element not in BV,element not in BV,0.96,1.38,orthorhombic,-2.340,0.312,0.600,17.389,0.398,5.637,5.668,10.884,90.0,90.0,90.0,-
PuLaO3,Pu,La,FALSE,element not in BV,element not in BV,0.96,1.03,-,-,-,-,-,-,-,-,-,-,-,-,-
PuLiO3,Pu,Li,FALSE,element not in BV,element not in BV,0.96,0.76,orthorhombic,-2.535,0.118,0.600,10.626,1.009,5.190,5.643,7.257,90.0,90.0,90.0,-
PuLuO3,Pu,Lu,FALSE,element not in BV,element not in BV,0.96,0.86,cubic,-3.141,0.656,1.000,14.602,0.000,4.180,4.180,4.180,90.0,90.0,90.0,-
PuMgO3,Pu,Mg,FALSE,element not in BV,element not in BV,0.96,0.72,orthorhombic,-3.148,-0.013,0.800,11.539,1.607,5.332,5.673,7.629,90.0,90.0,90.0,-0.714
PuMnO3,Pu,Mn,FALSE,element not in BV,element not in BV,0.96,0.62,orthorhombic,-2.888,-0.057,1.800,11.890,0.000,5.483,5.608,7.733,90.0,90.0,90.0,-
PuMoO3,Pu,Mo,FALSE,element not in BV,element not in BV,0.96,0.62,orthorhombic,-2.607,0.179,1.002,12.506,0.000,5.443,5.879,7.817,90.0,90.0,90.0,3.940
PuNaO3,Pu,Na,FALSE,element not in BV,element not in BV,0.96,1.02,orthorhombic,-2.331,0.300,0.600,13.212,0.000,5.837,6.090,7.434,90.0,90.0,90.0,-
PuNbO3,Pu,Nb,FALSE,element not in BV,element not in BV,0.96,0.68,cubic,-2.909,0.154,1.199,13.505,0.000,4.072,4.072,4.072,90.0,90.0,90.0,-
PuNdO3,Pu,Nd,FALSE,element not in BV,element not in BV,0.96,0.98,cubic,-2.541,1.086,1.010,17.655,0.000,4.453,4.453,4.453,90.0,90.0,90.0,-
PuNiO3,Pu,Ni,FALSE,element not in BV,element not in BV,0.96,0.59,orthorhombic,-2.473,-0.020,1.200,11.134,1.257,5.248,5.674,7.478,90.0,90.0,90.0,-
PuNpO3,Pu,Np,FALSE,element not in BV,element not in BV,0.96,0.86,-,-,-,-,-,-,-,-,-,-,-,-,-
PuOsO3,Pu,Os,FALSE,element not in BV,element not in BV,0.96,0.57,cubic,-1.093,1.246,1.772,18.817,0.000,4.548,4.548,4.548,90.0,90.0,90.0,-
PuPaO3,Pu,Pa,FALSE,element not in BV,element not in BV,0.96,0.91,cubic,-2.640,0.571,1.400,18.250,0.000,4.502,4.502,4.502,90.0,90.0,90.0,-
PuPbO3,Pu,Pb,FALSE,element not in BV,element not in BV,0.96,0.99,orthorhombic,-2.324,0.216,0.989,15.755,0.000,5.938,6.249,8.491,90.0,90.0,90.0,-
PuPdO3,Pu,Pd,FALSE,element not in BV,element not in BV,0.96,0.75,cubic,-1.678,0.538,0.998,13.379,0.000,4.059,4.059,4.059,90.0,90.0,90.0,-
PuPmO3,Pu,Pm,FALSE,element not in BV,element not in BV,0.96,0.97,cubic,-2.629,1.025,1.025,17.704,0.405,4.457,4.457,4.457,90.0,90.0,90.0,-1.198
PuPrO3,Pu,Pr,FALSE,element not in BV,element not in BV,0.96,0.92,cubic,-2.452,1.152,1.001,17.642,0.000,4.451,4.451,4.451,90.0,90.0,90.0,-
PuPtO3,Pu,Pt,FALSE,element not in BV,element not in BV,0.96,0.67,cubic,-1.536,0.657,1.019,13.182,0.000,4.039,4.039,4.039,90.0,90.0,90.0,-
Pu2O3,Pu,Pu,FALSE,element not in BV,element not in BV,0.96,0.83,cubic,-2.866,0.767,2.000,16.908,0.000,4.389,4.389,4.389,90.0,90.0,90.0,-
PuRbO3,Pu,Rb,FALSE,element not in BV,element not in BV,0.96,1.52,orthorhombic,-2.315,0.314,0.600,18.852,0.598,5.585,5.712,11.818,90.0,90.0,90.0,-
PuReO3,Pu,Re,FALSE,element not in BV,element not in BV,0.96,0.57,rhombohedral,-2.257,0.328,0.967,12.242,0.000,5.316,5.316,5.316,67.1,67.1,67.1,-
PuRhO3,Pu,Rh,FALSE,element not in BV,element not in BV,0.96,0.61,-,-,-,-,-,-,-,-,-,-,-,-,-
PuRuO3,Pu,Ru,FALSE,element not in BV,element not in BV,0.96,0.62,cubic,-1.885,0.501,0.859,12.042,0.000,3.919,3.919,3.919,90.0,90.0,90.0,-
PuSbO3,Pu,Sb,FALSE,element not in BV,element not in BV,0.96,0.68,cubic,-1.915,0.692,1.151,14.979,0.000,4.215,4.215,4.215,90.0,90.0,90.0,0.475
PuScO3,Pu,Sc,FALSE,element not in BV,element not in BV,0.96,0.75,orthorhombic,-3.744,-0.024,1.000,12.922,3.067,5.597,5.801,7.960,90.0,90.0,90.0,-
PuSiO3,Pu,Si,FALSE,element not in BV,element not in BV,0.96,0.40,cubic,-2.637,0.563,1.148,10.562,0.000,3.752,3.752,3.752,90.0,90.0,90.0,-
PuSmO3,Pu,Sm,FALSE,element not in BV,element not in BV,0.96,0.96,cubic,-2.357,1.310,0.999,22.661,0.000,4.839,4.839,4.839,90.0,90.0,90.0,-
PuSnO3,Pu,Sn,FALSE,element not in BV,element not in BV,0.96,0.69,cubic,-2.172,0.538,1.153,13.982,0.000,4.120,4.120,4.120,90.0,90.0,90.0,-
PuSrO3,Pu,Sr,FALSE,element not in BV,element not in BV,0.96,1.18,orthorhombic,-3.093,0.236,0.800,16.599,1.770,5.727,5.862,9.889,90.0,90.0,90.0,-
PuTaO3,Pu,Ta,FALSE,element not in BV,element not in BV,0.96,0.68,orthorhombic,-3.050,0.082,1.149,13.127,0.000,5.677,5.683,8.137,90.0,90.0,90.0,4.929
PuTbO3,Pu,Tb,FALSE,element not in BV,element not in BV,0.96,0.84,cubic,-2.739,0.858,1.000,16.164,0.000,4.324,4.324,4.324,90.0,90.0,90.0,-
PuTcO3,Pu,Tc,FALSE,element not in BV,element not in BV,0.96,0.60,rhombohedral,-2.403,0.179,1.117,12.358,0.000,5.391,5.391,5.391,65.3,65.3,65.3,1.436
PuTeO3,Pu,Te,FALSE,element not in BV,element not in BV,0.96,0.77,cubic,-1.645,0.776,1.183,15.466,0.000,4.260,4.260,4.260,90.0,90.0,90.0,0.542
PuThO3,Pu,Th,FALSE,element not in BV,element not in BV,0.96,0.94,cubic,-3.059,0.707,1.200,19.157,0.000,4.575,4.575,4.575,90.0,90.0,90.0,-
PuTiO3,Pu,Ti,FALSE,element not in BV,element not in BV,0.96,0.71,orthorhombic,-3.438,-0.060,1.118,11.941,0.000,5.475,5.603,7.785,90.0,90.0,90.0,-
PuTlO3,Pu,Tl,FALSE,element not in BV,element not in BV,0.96,1.20,orthorhombic,-2.225,0.077,1.000,14.777,0.390,5.784,6.168,8.284,90.0,90.0,90.0,-
PuTmO3,Pu,Tm,FALSE,element not in BV,element not in BV,0.96,0.96,cubic,-3.067,0.715,1.000,15.023,0.000,4.219,4.219,4.219,90.0,90.0,90.0,-
PuUO3,Pu,U,FALSE,element not in BV,element not in BV,0.96,0.85,rhombohedral,-3.352,0.183,1.600,16.437,0.000,6.082,6.082,6.082,61.5,61.5,61.5,-
PuVO3,Pu,V,TRUE,element not in BV,element not in BV,0.96,0.64,rhombohedral,-3.139,-0.008,1.400,12.112,0.600,5.531,5.531,5.531,60.6,60.6,60.6,-
PuWO3,Pu,W,FALSE,element not in BV,element not in BV,0.96,0.63,cubic,-2.490,0.306,1.188,12.841,0.000,4.004,4.004,4.004,90.0,90.0,90.0,3.860
PuYO3,Pu,Y,FALSE,element not in BV,element not in BV,0.96,0.90,cubic,-2.896,0.825,1.000,15.794,0.615,4.290,4.290,4.290,90.0,90.0,90.0,-
PuYbO3,Pu,Yb,FALSE,element not in BV,element not in BV,0.96,0.95,cubic,-2.390,1.079,0.952,14.051,0.000,4.126,4.126,4.126,90.0,90.0,90.0,-2.625
PuZnO3,Pu,Zn,FALSE,element not in BV,element not in BV,0.96,0.74,cubic,-2.147,0.469,0.893,11.516,0.000,3.862,3.862,3.862,90.0,90.0,90.0,-0.405
PuZrO3,Pu,Zr,FALSE,element not in BV,element not in BV,0.96,0.72,orthorhombic,-3.440,0.020,1.200,13.845,0.423,5.747,5.879,8.195,90.0,90.0,90.0,3.634
RbAcO3,Rb,Ac,FALSE,element not in BV,element not in BV,1.72,1.12,cubic,-2.058,0.300,0.001,19.179,0.000,4.577,4.577,4.577,90.0,90.0,90.0,-0.358
RbAgO3,Rb,Ag,FALSE,not balanced,not balanced,1.72,0.95,tetragonal,-0.251,0.491,-,14.303,0.000,4.128,4.128,4.197,90.0,90.0,90.0,-1.698
RbAlO3,Rb,Al,FALSE,not balanced,not balanced,1.72,0.54,cubic,-1.714,0.528,-,11.748,0.000,3.887,3.887,3.887,90.0,90.0,90.0,-1.863
RbAsO3,Rb,As,FALSE,not balanced,not balanced,1.72,0.52,tetragonal,-1.367,0.362,-,13.110,0.000,3.709,3.709,4.765,90.0,90.0,90.0,-0.287
RbAuO3,Rb,Au,FALSE,element not in BV,element not in BV,1.72,0.93,orthorhombic,-0.364,0.449,-,14.084,0.000,5.671,5.673,8.756,90.0,90.0,90.0,-1.526
RbBO3,Rb,B,FALSE,not balanced,not balanced,1.72,0.27,cubic,-0.399,1.637,-,9.579,0.000,3.632,3.632,3.632,90.0,90.0,90.0,-5.122
RbBaO3,Rb,Ba,FALSE,not balanced,not balanced,1.72,1.35,cubic,-1.034,0.718,-,20.076,0.000,4.647,4.647,4.647,90.0,90.0,90.0,-1.581
RbBeO3,Rb,Be,FALSE,not balanced,not balanced,1.72,0.45,cubic,-0.763,1.060,-,10.758,0.000,3.775,3.775,3.775,90.0,90.0,90.0,-3.482
RbBiO3,Rb,Bi,FALSE,1,5,1.72,0.76,cubic,-1.302,0.121,-,15.651,0.000,4.277,4.277,4.277,90.0,90.0,90.0,0.222
RbCaO3,Rb,Ca,FALSE,not balanced,not balanced,1.72,1.00,cubic,-1.158,0.756,-,17.796,0.000,4.464,4.464,4.464,90.0,90.0,90.0,-1.759
RbCdO3,Rb,Cd,FALSE,not balanced,not balanced,1.72,0.95,cubic,-0.502,0.629,-,15.673,0.000,4.279,4.279,4.279,90.0,90.0,90.0,-1.523
RbCeO3,Rb,Ce,FALSE,not balanced,not balanced,1.72,0.94,orthorhombic,-1.939,0.390,0.400,20.143,0.000,6.568,6.582,9.318,90.0,90.0,90.0,-0.755
RbCoO3,Rb,Co,FALSE,not balanced,not balanced,1.72,0.63,cubic,-0.851,0.367,0.940,12.086,0.000,3.924,3.924,3.924,90.0,90.0,90.0,0.199
RbCrO3,Rb,Cr,FALSE,1,5,1.72,0.49,cubic,-1.509,0.537,0.200,11.140,0.000,3.819,3.819,3.819,90.0,90.0,90.0,-0.714
RbCsO3,Rb,Cs,FALSE,not balanced,not balanced,1.72,1.67,cubic,-0.253,0.879,-,17.848,0.000,4.469,4.469,4.469,90.0,90.0,90.0,-1.170
RbCuO3,Rb,Cu,FALSE,not balanced,not balanced,1.72,0.68,cubic,-0.404,0.595,-,12.376,0.000,3.955,3.955,3.955,90.0,90.0,90.0,-2.068
RbDyO3,Rb,Dy,FALSE,not balanced,not balanced,1.72,0.99,rhombohedral,-2.127,0.366,0.400,17.726,0.000,6.282,6.282,6.282,60.5,60.5,60.5,-0.784
RbErO3,Rb,Er,FALSE,not balanced,not balanced,1.72,0.89,orthorhombic,-2.159,0.358,0.400,17.311,0.000,6.243,6.267,8.849,90.0,90.0,90.0,-0.704
RbEuO3,Rb,Eu,FALSE,not balanced,not balanced,1.72,1.06,cubic,-1.421,0.574,0.600,18.872,0.000,4.553,4.553,4.553,90.0,90.0,90.0,-0.885
RbFeO3,Rb,Fe,FALSE,not balanced,not balanced,1.72,0.67,tetragonal,-1.209,0.200,0.687,13.765,0.000,3.682,3.682,5.078,90.0,90.0,90.0,-1.062
RbGaO3,Rb,Ga,FALSE,not balanced,not balanced,1.72,0.62,rhombohedral,-1.131,0.494,-,12.878,0.000,5.664,5.664,5.664,60.1,60.1,60.1,-2.042
RbGdO3,Rb,Gd,FALSE,not balanced,not balanced,1.72,0.94,cubic,-2.092,0.373,0.400,18.145,0.000,4.493,4.493,4.493,90.0,90.0,90.0,-0.790
RbGeO3,Rb,Ge,FALSE,not balanced,not balanced,1.72,0.63,orthorhombic,-1.362,0.346,-,13.524,0.000,5.957,5.957,7.622,90.0,90.0,90.0,-1.102
RbHfO3,Rb,Hf,FALSE,not balanced,not balanced,1.72,0.71,cubic,-2.727,0.057,0.200,14.655,0.000,4.185,4.185,4.185,90.0,90.0,90.0,0.350
RbHgO3,Rb,Hg,FALSE,not balanced,not balanced,1.72,1.11,cubic,-0.276,0.543,-,15.787,0.000,4.290,4.290,4.290,90.0,90.0,90.0,-1.461
RbHoO3,Rb,Ho,FALSE,not balanced,not balanced,1.72,0.90,rhombohedral,-2.143,0.362,0.400,17.517,0.000,6.246,6.246,6.246,60.7,60.7,60.7,-0.738
RbInO3,Rb,In,FALSE,not balanced,not balanced,1.72,0.80,orthorhombic,-1.041,0.453,-,15.580,0.000,6.040,6.042,8.539,90.0,90.0,90.0,-1.454
RbIrO3,Rb,Ir,FALSE,1,5,1.72,0.57,rhombohedral,-1.034,0.256,0.268,12.613,0.000,5.625,5.625,5.625,60.1,60.1,60.1,1.078
RbKO3,Rb,K,FALSE,not balanced,not balanced,1.72,1.38,orthorhombic,-1.053,0.093,-,18.194,2.126,6.893,7.076,7.459,90.0,90.0,90.0,-10.190
RbLaO3,Rb,La,FALSE,not balanced,not balanced,1.72,1.03,orthorhombic,-2.067,0.358,0.400,19.406,0.000,6.490,6.505,9.193,90.0,90.0,90.0,-0.730
RbLiO3,Rb,Li,FALSE,not balanced,not balanced,1.72,0.76,cubic,-0.271,1.013,-,12.464,0.000,3.965,3.965,3.965,90.0,90.0,90.0,-2.935
RbLuO3,Rb,Lu,FALSE,not balanced,not balanced,1.72,0.86,tetragonal,-2.207,0.343,0.387,16.615,0.000,4.360,4.365,4.365,90.0,90.0,90.0,-0.660
RbMgO3,Rb,Mg,FALSE,not balanced,not balanced,1.72,0.72,cubic,-1.090,0.725,-,13.701,0.000,4.092,4.092,4.092,90.0,90.0,90.0,-1.889
RbMnO3,Rb,Mn,FALSE,not balanced,not balanced,1.72,0.62,tetragonal,-1.445,0.293,0.400,14.447,0.000,3.640,3.640,5.452,90.0,90.0,90.0,-1.514
RbMoO3,Rb,Mo,FALSE,1,5,1.72,0.61,rhombohedral,-2.143,0.130,0.000,12.656,0.000,5.636,5.636,5.636,60.0,60.0,60.0,4.668
RbNaO3,Rb,Na,FALSE,not balanced,not balanced,1.72,1.02,orthorhombic,-1.049,0.120,-,15.265,2.093,5.854,7.058,7.390,90.0,90.0,90.0,-2.370
RbNbO3,Rb,Nb,FALSE,1,5,1.72,0.64,tetragonal,-2.612,0.062,0.000,13.561,1.587,4.036,4.036,4.162,90.0,90.0,90.0,5.220
RbNdO3,Rb,Nd,FALSE,not balanced,not balanced,1.72,0.98,cubic,-1.996,0.383,0.400,19.466,0.000,4.600,4.600,4.600,90.0,90.0,90.0,-0.741
RbNiO3,Rb,Ni,FALSE,not balanced,not balanced,1.72,0.59,cubic,-0.548,0.585,0.755,12.757,0.000,3.996,3.996,3.996,90.0,90.0,90.0,-1.599
RbNpO3,Rb,Np,FALSE,element not in BV,element not in BV,1.72,0.86,orthorhombic,-2.857,-0.150,0.400,16.464,1.899,6.148,6.150,8.710,90.0,90.0,90.0,1.678
RbOsO3,Rb,Os,FALSE,element not in BV,element not in BV,1.72,0.57,cubic,-1.359,0.107,0.000,12.307,0.000,3.948,3.948,3.948,90.0,90.0,90.0,2.780
RbPaO3,Rb,Pa,TRUE,element not in BV,element not in BV,1.72,0.91,orthorhombic,-2.927,-0.543,0.000,17.243,3.980,6.248,6.249,8.833,90.0,90.0,90.0,6.242
RbPbO3,Rb,Pb,FALSE,not balanced,not balanced,1.72,0.99,cubic,-1.009,0.217,-,16.450,0.000,4.349,4.349,4.349,90.0,90.0,90.0,-0.958
RbPdO3,Rb,Pd,FALSE,not balanced,not balanced,1.72,0.75,tetragonal,-0.647,0.249,-,15.405,0.000,3.843,3.843,5.214,90.0,90.0,90.0,-1.294
RbPmO3,Rb,Pm,FALSE,element not in BV,element not in BV,1.72,0.97,cubic,-2.027,0.380,0.400,19.056,0.000,4.567,4.567,4.567,90.0,90.0,90.0,-0.750
RbPrO3,Rb,Pr,FALSE,not balanced,not balanced,1.72,0.92,cubic,-1.969,0.387,0.400,19.810,0.000,4.627,4.627,4.627,90.0,90.0,90.0,-0.782
RbPtO3,Rb,Pt,FALSE,element not in BV,element not in BV,1.72,0.67,tetragonal,-0.757,0.275,0.199,14.405,0.000,3.911,3.911,4.709,90.0,90.0,90.0,-0.383
RbPuO3,Rb,Pu,FALSE,element not in BV,element not in BV,1.72,0.83,orthorhombic,-2.629,-0.103,0.600,16.480,1.002,6.151,6.154,8.707,90.0,90.0,90.0,1.277