Chemical formula,A,B,In literature,Valence A,Valence B,Radius A [ang],Radius B [ang],Lowest distortion,Formation energy [eV/atom],Stability [eV/atom],Magnetic moment [mu_B],Volume per atom [A^3/atom],Band gap [eV],a [ang],b [ang],c [ang],alpha [deg],beta [deg],gamma [deg],Vacancy energy [eV/O atom]
NiPuO3,Ni,Pu,FALSE,element not in BV,element not in BV,0.59,0.83,orthorhombic,-2.378,0.095,1.200,12.728,1.430,5.518,5.581,8.267,90.0,90.0,90.0,-
NiRbO3,Ni,Rb,FALSE,not balanced,not balanced,0.59,1.52,-,-,-,-,-,-,-,-,-,-,-,-,-
NiReO3,Ni,Re,FALSE,2,4,0.69,0.63,cubic,-0.747,0.775,0.195,11.388,0.000,3.847,3.847,3.847,90.0,90.0,90.0,0.228
NiRhO3,Ni,Rh,FALSE,2,4,0.69,0.60,cubic,-0.227,0.893,-0.142,11.537,0.000,3.864,3.864,3.864,90.0,90.0,90.0,-0.282
NiRuO3,Ni,Ru,FALSE,2,4,0.69,0.62,cubic,-0.398,0.858,0.080,10.453,0.000,3.739,3.739,3.739,90.0,90.0,90.0,-
NiSbO3,Ni,Sb,FALSE,1,5,0.69,0.60,cubic,-0.607,0.916,0.235,12.185,0.000,3.935,3.935,3.935,90.0,90.0,90.0,-1.081
NiScO3,Ni,Sc,FALSE,not balanced,not balanced,0.59,0.75,-,-,-,-,-,-,-,-,-,-,-,-,-
NiSiO3,Ni,Si,FALSE,2,4,0.69,0.40,cubic,-1.453,0.910,0.400,8.536,0.000,3.495,3.495,3.495,90.0,90.0,90.0,0.759
NiSmO3,Ni,Sm,FALSE,not balanced,not balanced,0.59,0.96,orthorhombic,-2.051,0.305,0.600,13.049,0.000,5.712,5.763,7.928,90.0,90.0,90.0,-
NiSnO3,Ni,Sn,FALSE,2,4,0.69,0.69,cubic,-0.582,1.087,0.400,12.711,0.000,3.991,3.991,3.991,90.0,90.0,90.0,-
NiSrO3,Ni,Sr,FALSE,not balanced,not balanced,0.59,1.18,orthorhombic,-1.477,0.315,0.530,13.998,0.000,5.401,5.985,8.661,90.0,90.0,90.0,-8.413
NiTaO3,Ni,Ta,FALSE,2,4,0.69,0.68,cubic,-1.737,0.738,0.200,12.189,0.000,3.935,3.935,3.935,90.0,90.0,90.0,2.050
NiTbO3,Ni,Tb,FALSE,not balanced,not balanced,0.59,0.84,orthorhombic,-1.982,0.294,0.599,12.487,0.000,5.657,5.666,7.792,90.0,90.0,90.0,-
NiTcO3,Ni,Tc,FALSE,element not in BV,element not in BV,0.59,0.60,-,-,-,-,-,-,-,-,-,-,-,-,-
NiTeO3,Ni,Te,FALSE,2,4,0.69,0.97,cubic,-0.257,1.060,0.228,13.109,0.000,4.032,4.032,4.032,90.0,90.0,90.0,-
NiThO3,Ni,Th,FALSE,not balanced,not balanced,0.59,0.94,-,-,-,-,-,-,-,-,-,-,-,-,-
NiTiO3,Ni,Ti,FALSE,2,4,0.69,0.61,cubic,-1.545,0.923,0.400,11.461,0.000,3.855,3.855,3.855,90.0,90.0,90.0,-
NiTlO3,Ni,Tl,FALSE,not balanced,not balanced,0.59,1.20,orthorhombic,-0.675,0.290,0.600,12.243,0.000,5.635,5.636,7.710,90.0,90.0,90.0,-
NiTmO3,Ni,Tm,FALSE,not balanced,not balanced,0.59,0.96,orthorhombic,-2.169,0.293,0.596,11.863,0.000,5.550,5.598,7.636,90.0,90.0,90.0,-
NiUO3,Ni,U,FALSE,not balanced,not balanced,0.59,0.85,-,-,-,-,-,-,-,-,-,-,-,-,-
NiVO3,Ni,V,FALSE,2,4,0.69,0.58,cubic,-1.169,0.836,0.200,10.210,0.000,3.710,3.710,3.710,90.0,90.0,90.0,-
NiWO3,Ni,W,FALSE,2,4,0.69,0.66,cubic,-0.276,1.681,-0.224,17.717,0.000,4.458,4.458,4.458,90.0,90.0,90.0,-7.998
NiYO3,Ni,Y,FALSE,not balanced,not balanced,0.59,0.90,orthorhombic,-2.104,0.296,0.598,12.334,0.000,5.640,5.645,7.747,90.0,90.0,90.0,-
NiYbO3,Ni,Yb,FALSE,not balanced,not balanced,0.59,0.95,orthorhombic,-1.788,0.112,0.400,11.546,1.828,5.704,5.726,7.070,90.0,90.0,90.0,-
NiZnO3,Ni,Zn,FALSE,not balanced,not balanced,0.59,0.74,cubic,0.062,1.218,-0.609,10.757,0.000,3.775,3.775,3.775,90.0,90.0,90.0,-
NiZrO3,Ni,Zr,FALSE,2,4,0.69,0.72,cubic,-1.549,1.128,0.400,13.856,0.000,4.107,4.107,4.107,90.0,90.0,90.0,-2.937
NpAcO3,Np,Ac,FALSE,element not in BV,element not in BV,0.98,1.12,cubic,-2.417,1.113,0.800,20.378,0.000,4.671,4.671,4.671,90.0,90.0,90.0,1.788
NpAgO3,Np,Ag,FALSE,element not in BV,element not in BV,0.98,0.95,cubic,-1.625,0.707,0.796,13.411,0.000,4.063,4.063,4.063,90.0,90.0,90.0,0.195
NpAlO3,Np,Al,FALSE,element not in BV,element not in BV,0.98,0.54,rhombohedral,-3.502,-0.129,0.800,10.629,2.622,5.307,5.307,5.307,60.2,60.2,60.2,6.440
NpAsO3,Np,As,FALSE,element not in BV,element not in BV,0.98,0.52,cubic,-2.088,0.620,0.818,13.292,0.000,4.051,4.051,4.051,90.0,90.0,90.0,2.908
NpAuO3,Np,Au,FALSE,element not in BV,element not in BV,0.98,0.93,cubic,-1.502,0.818,0.798,14.095,0.000,4.131,4.131,4.131,90.0,90.0,90.0,0.659
NpBO3,Np,B,FALSE,element not in BV,element not in BV,0.98,0.27,cubic,-2.414,0.699,0.800,9.112,0.000,3.572,3.572,3.572,90.0,90.0,90.0,4.958
NpBaO3,Np,Ba,FALSE,element not in BV,element not in BV,0.98,1.35,orthorhombic,-3.067,0.322,0.600,18.349,2.404,6.602,6.691,8.308,90.0,90.0,90.0,-
NpBeO3,Np,Be,FALSE,element not in BV,element not in BV,0.98,0.45,orthorhombic,-3.038,0.375,0.600,9.277,2.095,5.069,5.077,7.210,90.0,90.0,90.0,1.432
NpBiO3,Np,Bi,FALSE,element not in BV,element not in BV,0.98,0.90,cubic,-1.753,0.965,0.851,17.099,0.000,4.405,4.405,4.405,90.0,90.0,90.0,-
NpCaO3,Np,Ca,FALSE,element not in BV,element not in BV,0.98,1.00,cubic,-1.582,1.922,0.844,24.428,0.000,4.962,4.962,4.962,90.0,90.0,90.0,-
NpCdO3,Np,Cd,FALSE,element not in BV,element not in BV,0.98,0.95,cubic,-1.807,0.913,0.794,14.088,0.000,4.130,4.130,4.130,90.0,90.0,90.0,-
NpCeO3,Np,Ce,FALSE,element not in BV,element not in BV,0.98,0.94,cubic,-2.562,0.938,0.800,18.835,0.380,4.550,4.550,4.550,90.0,90.0,90.0,-
NpCoO3,Np,Co,FALSE,element not in BV,element not in BV,0.98,0.63,cubic,-2.318,0.406,0.573,10.705,0.000,3.769,3.769,3.769,90.0,90.0,90.0,2.922
NpCrO3,Np,Cr,FALSE,element not in BV,element not in BV,0.98,0.58,orthorhombic,-3.083,-0.029,1.400,11.729,1.131,5.441,5.555,7.761,90.0,90.0,90.0,4.866
NpCsO3,Np,Cs,FALSE,element not in BV,element not in BV,0.98,1.67,-,-,-,-,-,-,-,-,-,-,-,-,-
NpCuO3,Np,Cu,FALSE,element not in BV,element not in BV,0.98,0.68,rhombohedral,-2.167,0.381,0.764,11.006,0.000,5.365,5.365,5.365,60.3,60.3,60.3,1.586
NpDyO3,Np,Dy,FALSE,element not in BV,element not in BV,0.98,0.99,cubic,-3.136,0.529,0.800,15.765,1.742,4.288,4.288,4.288,90.0,90.0,90.0,-
NpErO3,Np,Er,FALSE,element not in BV,element not in BV,0.98,0.89,orthorhombic,-3.699,-0.010,0.800,14.560,2.830,5.781,6.070,8.298,90.0,90.0,90.0,5.227
NpEuO3,Np,Eu,FALSE,element not in BV,element not in BV,0.98,1.06,cubic,-2.382,1.205,0.626,15.679,0.000,4.280,4.280,4.280,90.0,90.0,90.0,-
NpFeO3,Np,Fe,FALSE,element not in BV,element not in BV,0.98,0.67,orthorhombic,-2.740,0.094,1.400,12.033,1.350,5.357,5.983,7.509,90.0,90.0,90.0,4.556
NpGaO3,Np,Ga,FALSE,element not in BV,element not in BV,0.98,0.62,orthorhombic,-2.862,0.065,0.800,11.752,2.042,5.468,5.536,7.765,90.0,90.0,90.0,4.907
NpGdO3,Np,Gd,FALSE,element not in BV,element not in BV,0.98,0.94,cubic,-3.028,0.609,0.800,16.325,1.517,4.338,4.338,4.338,90.0,90.0,90.0,4.648
NpGeO3,Np,Ge,FALSE,element not in BV,element not in BV,0.98,0.63,orthorhombic,-2.482,0.311,0.798,12.842,0.000,5.546,5.821,7.955,90.0,90.0,90.0,3.955
NpHfO3,Np,Hf,FALSE,element not in BV,element not in BV,0.98,0.71,orthorhombic,-3.362,0.106,0.905,13.453,0.000,5.627,5.950,8.036,90.0,90.0,90.0,-
NpHgO3,Np,Hg,FALSE,element not in BV,element not in BV,0.98,1.11,cubic,-1.405,1.003,0.797,14.990,0.000,4.216,4.216,4.216,90.0,90.0,90.0,-0.284
NpHoO3,Np,Ho,FALSE,element not in BV,element not in BV,0.98,0.90,rhombohedral,-3.592,0.086,0.800,14.960,2.113,5.911,5.911,5.911,61.1,61.1,61.1,-
NpInO3,Np,In,FALSE,element not in BV,element not in BV,0.98,0.80,orthorhombic,-2.690,0.151,0.800,14.003,1.104,5.697,6.007,8.184,90.0,90.0,90.0,-
NpIrO3,Np,Ir,FALSE,element not in BV,element not in BV,0.98,0.63,cubic,-1.806,0.739,0.794,12.770,0.000,3.997,3.997,3.997,90.0,90.0,90.0,0.150
NpKO3,Np,K,FALSE,element not in BV,element not in BV,0.98,1.38,orthorhombic,-2.617,0.267,0.400,17.676,1.485,5.371,5.622,11.707,90.0,90.0,90.0,-
NpLaO3,Np,La,FALSE,element not in BV,element not in BV,0.98,1.03,cubic,-2.684,0.912,0.800,18.675,0.391,4.537,4.537,4.537,90.0,90.0,90.0,-
NpLiO3,Np,Li,FALSE,element not in BV,element not in BV,0.98,0.76,cubic,-2.336,0.596,0.795,9.578,0.000,3.631,3.631,3.631,90.0,90.0,90.0,-1.828
NpLuO3,Np,Lu,FALSE,element not in BV,element not in BV,0.98,0.86,orthorhombic,-3.749,-0.028,0.800,14.135,2.807,5.720,6.006,8.229,90.0,90.0,90.0,-
NpMgO3,Np,Mg,FALSE,element not in BV,element not in BV,0.98,0.72,orthorhombic,-3.275,0.129,0.600,11.580,2.262,5.344,5.679,7.631,90.0,90.0,90.0,-0.126
NpMnO3,Np,Mn,FALSE,element not in BV,element not in BV,0.98,0.62,rhombohedral,-2.843,0.198,1.600,11.863,0.000,5.463,5.463,5.463,61.3,61.3,61.3,5.185
NpMoO3,Np,Mo,FALSE,element not in BV,element not in BV,0.98,0.62,orthorhombic,-2.568,0.304,0.922,12.707,0.000,5.374,6.019,7.857,90.0,90.0,90.0,2.474
NpNaO3,Np,Na,FALSE,element not in BV,element not in BV,0.98,1.02,orthorhombic,-2.626,0.225,0.400,13.281,1.515,5.475,5.677,8.546,90.0,90.0,90.0,-4.152
NpNbO3,Np,Nb,FALSE,element not in BV,element not in BV,0.98,0.68,orthorhombic,-2.895,0.193,0.760,13.013,0.000,5.490,6.062,7.820,90.0,90.0,90.0,3.591
NpNdO3,Np,Nd,FALSE,element not in BV,element not in BV,0.98,0.98,cubic,-2.739,0.812,0.800,17.819,0.770,4.466,4.466,4.466,90.0,90.0,90.0,-
NpNiO3,Np,Ni,FALSE,element not in BV,element not in BV,0.98,0.59,orthorhombic,-2.622,0.101,1.000,11.519,2.162,5.277,5.782,7.551,90.0,90.0,90.0,3.251
Np2O3,Np,Np,FALSE,element not in BV,element not in BV,0.98,0.86,-,-,-,-,-,-,-,-,-,-,-,-,-
NpOsO3,Np,Os,FALSE,element not in BV,element not in BV,0.98,0.57,cubic,-1.846,0.728,0.806,12.609,0.000,3.980,3.980,3.980,90.0,90.0,90.0,0.907
NpPaO3,Np,Pa,FALSE,element not in BV,element not in BV,0.98,0.91,cubic,-2.557,0.599,1.174,18.079,0.000,4.488,4.488,4.488,90.0,90.0,90.0,3.381
NpPbO3,Np,Pb,FALSE,element not in BV,element not in BV,0.98,0.99,cubic,-1.663,1.091,0.872,15.018,0.000,4.219,4.219,4.219,90.0,90.0,90.0,0.633
NpPdO3,Np,Pd,FALSE,element not in BV,element not in BV,0.98,0.75,cubic,-1.890,0.596,0.795,12.790,0.000,3.999,3.999,3.999,90.0,90.0,90.0,0.725
NpPmO3,Np,Pm,FALSE,element not in BV,element not in BV,0.98,0.97,cubic,-2.827,0.752,0.800,17.381,0.966,4.429,4.429,4.429,90.0,90.0,90.0,-
NpPrO3,Np,Pr,FALSE,element not in BV,element not in BV,0.98,0.92,cubic,-2.657,0.871,0.800,18.305,0.597,4.507,4.507,4.507,90.0,90.0,90.0,-
NpPtO3,Np,Pt,FALSE,element not in BV,element not in BV,0.98,0.67,cubic,-1.740,0.723,0.804,13.306,0.000,4.052,4.052,4.052,90.0,90.0,90.0,0.289
NpPuO3,Np,Pu,FALSE,element not in BV,element not in BV,0.98,0.83,cubic,-2.801,0.756,1.785,18.600,0.000,4.531,4.531,4.531,90.0,90.0,90.0,-
NpRbO3,Np,Rb,FALSE,element not in BV,element not in BV,0.98,1.52,orthorhombic,-2.483,0.374,0.400,17.565,1.862,6.757,7.133,7.289,90.0,90.0,90.0,-
NpReO3,Np,Re,FALSE,element not in BV,element not in BV,0.98,0.57,cubic,-2.045,0.694,0.782,12.671,0.000,3.986,3.986,3.986,90.0,90.0,90.0,-
NpRhO3,Np,Rh,FALSE,element not in BV,element not in BV,0.98,0.61,cubic,-2.012,0.525,0.792,12.451,0.000,3.963,3.963,3.963,90.0,90.0,90.0,1.574
NpRuO3,Np,Ru,FALSE,element not in BV,element not in BV,0.98,0.62,cubic,-2.066,0.540,0.803,12.380,0.000,3.956,3.956,3.956,90.0,90.0,90.0,1.542
NpSbO3,Np,Sb,FALSE,element not in BV,element not in BV,0.98,0.68,cubic,-1.933,0.820,0.882,15.395,0.000,4.254,4.254,4.254,90.0,90.0,90.0,2.058
NpScO3,Np,Sc,FALSE,element not in BV,element not in BV,0.98,0.75,orthorhombic,-3.713,-0.069,0.800,13.010,2.627,5.587,5.820,8.002,90.0,90.0,90.0,5.600
NpSiO3,Np,Si,FALSE,element not in BV,element not in BV,0.98,0.40,tetragonal,-2.702,0.447,0.886,11.510,0.000,3.576,3.576,4.499,90.0,90.0,90.0,4.250
NpSmO3,Np,Sm,FALSE,element not in BV,element not in BV,0.98,0.96,cubic,-2.881,0.710,0.800,17.065,1.156,4.402,4.402,4.402,90.0,90.0,90.0,-
NpSnO3,Np,Sn,FALSE,element not in BV,element not in BV,0.98,0.69,cubic,-2.175,0.666,0.900,14.382,0.000,4.158,4.158,4.158,90.0,90.0,90.0,2.714
NpSrO3,Np,Sr,FALSE,element not in BV,element not in BV,0.98,1.18,cubic,-1.957,1.461,0.826,17.004,0.000,4.397,4.397,4.397,90.0,90.0,90.0,-2.042
NpTaO3,Np,Ta,FALSE,element not in BV,element not in BV,0.98,0.68,rhombohedral,-2.893,0.209,0.750,12.800,0.000,5.371,5.371,5.371,67.9,67.9,67.9,3.440
NpTbO3,Np,Tb,FALSE,element not in BV,element not in BV,0.98,0.84,cubic,-2.953,0.568,0.800,16.029,1.542,4.311,4.311,4.311,90.0,90.0,90.0,4.487
NpTcO3,Np,Tc,FALSE,element not in BV,element not in BV,0.98,0.60,orthorhombic,-2.457,0.280,0.400,12.416,0.000,5.301,6.034,7.764,90.0,90.0,90.0,2.192
NpTeO3,Np,Te,FALSE,element not in BV,element not in BV,0.98,0.77,cubic,-1.611,1.005,0.917,15.661,0.000,4.278,4.278,4.278,90.0,90.0,90.0,1.462
NpThO3,Np,Th,FALSE,element not in BV,element not in BV,0.98,0.94,cubic,-2.968,0.735,0.970,19.029,0.000,4.565,4.565,4.565,90.0,90.0,90.0,3.165
NpTiO3,Np,Ti,FALSE,element not in BV,element not in BV,0.98,0.71,orthorhombic,-3.374,-0.051,0.863,12.298,0.000,5.485,5.713,7.849,90.0,90.0,90.0,5.168
NpTlO3,Np,Tl,FALSE,element not in BV,element not in BV,0.98,1.20,orthorhombic,-2.175,0.397,0.796,14.890,0.000,5.786,6.192,8.312,90.0,90.0,90.0,1.144
NpTmO3,Np,Tm,FALSE,element not in BV,element not in BV,0.98,0.96,orthorhombic,-3.724,-0.018,0.800,14.396,2.638,5.758,6.034,8.288,90.0,90.0,90.0,-
NpUO3,Np,U,FALSE,element not in BV,element not in BV,0.98,0.85,cubic,-2.753,0.706,0.977,17.243,0.000,4.418,4.418,4.418,90.0,90.0,90.0,-
NpVO3,Np,V,FALSE,element not in BV,element not in BV,0.98,0.64,orthorhombic,-3.164,-0.033,1.200,12.126,1.129,5.462,5.707,7.781,90.0,90.0,90.0,4.508
NpWO3,Np,W,FALSE,element not in BV,element not in BV,0.98,0.63,cubic,-2.323,0.557,0.846,12.801,0.000,4.000,4.000,4.000,90.0,90.0,90.0,1.896
NpYO3,Np,Y,FALSE,element not in BV,element not in BV,0.98,0.90,cubic,-3.112,0.532,0.800,15.763,2.074,4.287,4.287,4.287,90.0,90.0,90.0,-
NpYbO3,Np,Yb,FALSE,element not in BV,element not in BV,0.98,0.95,cubic,-2.613,1.016,0.599,14.146,0.000,4.136,4.136,4.136,90.0,90.0,90.0,-0.865
NpZnO3,Np,Zn,FALSE,element not in BV,element not in BV,0.98,0.74,cubic,-2.285,0.601,0.763,11.603,0.000,3.871,3.871,3.871,90.0,90.0,90.0,0.507
NpZrO3,Np,Zr,FALSE,element not in BV,element not in BV,0.98,0.72,orthorhombic,-3.311,0.073,0.681,13.646,0.000,5.662,6.140,7.851,90.0,90.0,90.0,4.437
OsAcO3,Os,Ac,FALSE,element not in BV,element not in BV,0.57,1.12,orthorhombic,-1.968,0.345,0.200,17.298,0.000,6.186,6.510,8.590,90.0,90.0,90.0,-4.356
OsAgO3,Os,Ag,FALSE,element not in BV,element not in BV,0.57,0.95,orthorhombic,-0.609,0.372,0.000,13.329,0.000,5.268,5.685,8.902,90.0,90.0,90.0,-10.331
OsAlO3,Os,Al,FALSE,element not in BV,element not in BV,0.57,0.54,cubic,-0.947,1.208,0.862,9.843,0.000,3.665,3.665,3.665,90.0,90.0,90.0,-1.778
OsAsO3,Os,As,FALSE,element not in BV,element not in BV,0.57,0.52,cubic,0.242,1.488,0.829,11.602,0.000,3.871,3.871,3.871,90.0,90.0,90.0,-0.669
OsAuO3,Os,Au,FALSE,element not in BV,element not in BV,0.57,0.93,cubic,1.028,2.009,0.934,13.296,0.000,4.051,4.051,4.051,90.0,90.0,90.0,-9.276
OsBO3,Os,B,FALSE,element not in BV,element not in BV,0.57,0.27,cubic,-0.063,1.771,0.003,7.736,0.000,3.382,3.382,3.382,90.0,90.0,90.0,-0.484
OsBaO3,Os,Ba,FALSE,element not in BV,element not in BV,0.57,1.35,cubic,0.843,0.069,0.962,19.177,0.000,4.577,4.577,4.577,90.0,90.0,90.0,-16.217
OsBeO3,Os,Be,FALSE,element not in BV,element not in BV,0.57,0.45,cubic,-0.582,1.302,0.012,7.920,0.000,3.408,3.408,3.408,90.0,90.0,90.0,-2.969
OsBiO3,Os,Bi,FALSE,element not in BV,element not in BV,0.57,0.90,cubic,0.460,1.720,0.820,15.183,0.000,4.234,4.234,4.234,90.0,90.0,90.0,-3.381
OsCaO3,Os,Ca,FALSE,element not in BV,element not in BV,0.57,1.00,-,-,-,-,-,-,-,-,-,-,-,-,-
OsCdO3,Os,Cd,FALSE,element not in BV,element not in BV,0.57,0.95,cubic,0.818,2.059,0.996,13.653,0.000,4.087,4.087,4.087,90.0,90.0,90.0,-11.245
OsCeO3,Os,Ce,FALSE,element not in BV,element not in BV,0.57,0.94,cubic,-0.142,2.141,1.080,18.387,0.000,4.513,4.513,4.513,90.0,90.0,90.0,-10.607
OsCoO3,Os,Co,FALSE,element not in BV,element not in BV,0.57,0.63,cubic,0.191,1.398,0.893,9.924,0.000,3.675,3.675,3.675,90.0,90.0,90.0,-2.690
OsCrO3,Os,Cr,FALSE,element not in BV,element not in BV,0.57,0.58,cubic,-0.401,1.363,1.465,11.049,0.000,3.809,3.809,3.809,90.0,90.0,90.0,-2.734
OsCsO3,Os,Cs,FALSE,element not in BV,element not in BV,0.57,1.67,orthorhombic,-1.383,0.042,0.200,24.423,0.806,6.722,7.190,10.107,90.0,90.0,90.0,-
OsCuO3,Os,Cu,FALSE,element not in BV,element not in BV,0.57,0.68,cubic,0.457,1.502,0.946,10.312,0.000,3.722,3.722,3.722,90.0,90.0,90.0,-6.332
OsDyO3,Os,Dy,FALSE,element not in BV,element not in BV,0.57,0.99,cubic,-0.568,1.880,1.020,15.613,0.000,4.274,4.274,4.274,90.0,90.0,90.0,-8.644
OsErO3,Os,Er,FALSE,element not in BV,element not in BV,0.57,0.89,cubic,-0.646,1.825,1.014,15.148,0.000,4.231,4.231,4.231,90.0,90.0,90.0,-8.154
OsEuO3,Os,Eu,FALSE,element not in BV,element not in BV,0.57,1.06,cubic,0.193,0.259,1.025,15.591,0.000,4.272,4.272,4.272,90.0,90.0,90.0,-13.844
OsFeO3,Os,Fe,FALSE,element not in BV,element not in BV,0.57,0.67,cubic,-0.009,1.338,1.844,11.120,0.000,3.817,3.817,3.817,90.0,90.0,90.0,-4.938
OsGaO3,Os,Ga,FALSE,element not in BV,element not in BV,0.57,0.62,cubic,-0.195,1.378,0.975,11.048,0.000,3.808,3.808,3.808,90.0,90.0,90.0,-4.119
OsGdO3,Os,Gd,FALSE,element not in BV,element not in BV,0.57,0.94,cubic,-0.480,1.960,1.024,16.143,0.000,4.322,4.322,4.322,90.0,90.0,90.0,-9.147
OsGeO3,Os,Ge,FALSE,element not in BV,element not in BV,0.57,0.63,cubic,-0.135,1.347,0.832,10.679,0.000,3.766,3.766,3.766,90.0,90.0,90.0,0.780
OsHfO3,Os,Hf,FALSE,element not in BV,element not in BV,0.57,0.71,cubic,-1.262,1.390,0.834,13.403,0.000,4.062,4.062,4.062,90.0,90.0,90.0,-2.052
OsHgO3,Os,Hg,FALSE,element not in BV,element not in BV,0.57,1.11,cubic,1.156,2.137,0.935,14.318,0.000,4.152,4.152,4.152,90.0,90.0,90.0,-11.671
OsHoO3,Os,Ho,FALSE,element not in BV,element not in BV,0.57,0.90,cubic,-0.608,1.852,1.016,15.370,0.000,4.252,4.252,4.252,90.0,90.0,90.0,-8.396
OsInO3,Os,In,FALSE,element not in BV,element not in BV,0.57,0.80,cubic,0.256,1.701,1.010,13.746,0.000,4.096,4.096,4.096,90.0,90.0,90.0,-7.489
OsIrO3,Os,Ir,FALSE,element not in BV,element not in BV,0.57,0.63,cubic,0.550,1.566,0.874,12.036,0.000,3.919,3.919,3.919,90.0,90.0,90.0,-3.448
OsKO3,Os,K,FALSE,element not in BV,element not in BV,0.57,1.38,cubic,1.634,0.130,1.416,16.038,0.000,4.312,4.312,4.312,90.0,90.0,90.0,-20.671
OsLaO3,Os,La,FALSE,element not in BV,element not in BV,0.57,1.03,cubic,-0.277,2.187,1.078,17.899,0.000,4.473,4.473,4.473,90.0,90.0,90.0,-10.318
OsLiO3,Os,Li,FALSE,element not in BV,element not in BV,0.57,0.76,orthorhombic,-1.276,0.299,0.052,9.131,0.000,5.131,5.457,6.522,90.0,90.0,90.0,-7.455
OsLuO3,Os,Lu,FALSE,element not in BV,element not in BV,0.57,0.86,cubic,-0.762,1.741,1.008,14.454,0.000,4.165,4.165,4.165,90.0,90.0,90.0,-7.387
OsMgO3,Os,Mg,FALSE,element not in BV,element not in BV,0.57,0.72,cubic,-0.243,1.633,0.285,10.116,0.000,3.698,3.698,3.698,90.0,90.0,90.0,-7.198
OsMnO3,Os,Mn,FALSE,element not in BV,element not in BV,0.57,0.62,cubic,-0.214,1.334,1.650,10.952,0.000,3.797,3.797,3.797,90.0,90.0,90.0,-
OsMoO3,Os,Mo,FALSE,element not in BV,element not in BV,0.57,0.62,cubic,-0.360,1.371,0.687,12.070,0.000,3.922,3.922,3.922,90.0,90.0,90.0,0.921
OsNaO3,Os,Na,FALSE,element not in BV,element not in BV,0.57,1.02,cubic,1.098,0.213,0.572,11.269,0.000,3.834,3.834,3.834,90.0,90.0,90.0,-15.995
OsNbO3,Os,Nb,FALSE,element not in BV,element not in BV,0.57,0.68,cubic,-0.781,1.375,0.686,12.809,0.000,4.001,4.001,4.001,90.0,90.0,90.0,1.845
OsNdO3,Os,Nd,FALSE,element not in BV,element not in BV,0.57,0.98,cubic,-0.262,2.118,1.049,17.487,0.000,4.438,4.438,4.438,90.0,90.0,90.0,-10.179
OsNiO3,Os,Ni,FALSE,element not in BV,element not in BV,0.57,0.59,cubic,0.303,1.497,1.118,10.101,0.000,3.696,3.696,3.696,90.0,90.0,90.0,-4.568
OsNpO3,Os,Np,FALSE,element not in BV,element not in BV,0.57,0.86,cubic,-0.810,1.764,-0.326,15.909,0.000,4.301,4.301,4.301,90.0,90.0,90.0,-4.987
Os2O3,Os,Os,FALSE,element not in BV,element not in BV,0.57,0.57,cubic,0.351,1.397,0.632,11.843,0.000,3.898,3.898,3.898,90.0,90.0,90.0,-2.406
OsPaO3,Os,Pa,FALSE,element not in BV,element not in BV,0.57,0.91,cubic,-0.935,1.273,0.790,16.602,0.000,4.362,4.362,4.362,90.0,90.0,90.0,2.596
OsPbO3,Os,Pb,FALSE,element not in BV,element not in BV,0.57,0.99,cubic,0.550,0.263,0.861,14.780,0.000,4.196,4.196,4.196,90.0,90.0,90.0,-0.135
OsPdO3,Os,Pd,FALSE,element not in BV,element not in BV,0.57,0.75,cubic,0.675,1.656,0.978,12.150,0.000,3.931,3.931,3.931,90.0,90.0,90.0,-6.918
OsPmO3,Os,Pm,FALSE,element not in BV,element not in BV,0.57,0.97,cubic,-0.326,2.035,1.047,17.076,0.000,4.403,4.403,4.403,90.0,90.0,90.0,-9.917