Chemical formula,A,B,In literature,Valence A,Valence B,Radius A [ang],Radius B [ang],Lowest distortion,Formation energy [eV/atom],Stability [eV/atom],Magnetic moment [mu_B],Volume per atom [A^3/atom],Band gap [eV],a [ang],b [ang],c [ang],alpha [deg],beta [deg],gamma [deg],Vacancy energy [eV/O atom]
CoSbO3,Co,Sb,FALSE,1,5,0.90,0.60,cubic,-0.909,0.608,0.442,12.663,0.000,3.986,3.986,3.986,90.0,90.0,90.0,1.453
CoScO3,Co,Sc,FALSE,3,3,0.61,0.75,cubic,-1.568,0.963,0.798,12.830,0.000,4.003,4.003,4.003,90.0,90.0,90.0,-2.898
CoSiO3,Co,Si,FALSE,2,4,0.90,0.40,cubic,-1.853,0.515,0.599,8.646,1.149,3.510,3.510,3.510,90.0,90.0,90.0,3.962
CoSmO3,Co,Sm,FALSE,3,3,0.61,0.96,orthorhombic,-2.295,0.192,0.800,13.190,1.133,5.512,5.625,8.508,90.0,90.0,90.0,-
CoSnO3,Co,Sn,FALSE,2,4,0.90,0.69,cubic,-0.997,0.673,0.600,12.812,0.360,4.001,4.001,4.001,90.0,90.0,90.0,-
CoSrO3,Co,Sr,FALSE,not balanced,not balanced,0.90,1.18,rhombohedral,-1.785,0.133,0.600,16.353,0.000,6.583,6.583,6.583,52.0,52.0,52.0,-7.768
CoTaO3,Co,Ta,FALSE,1,5,0.90,0.64,cubic,-1.928,0.549,0.482,12.331,0.000,3.951,3.951,3.951,90.0,90.0,90.0,3.834
CoTbO3,Co,Tb,FALSE,3,3,0.61,0.92,rhombohedral,-2.290,0.117,0.799,13.606,1.573,6.025,6.025,6.025,54.8,54.8,54.8,-4.123
CoTcO3,Co,Tc,FALSE,element not in BV,element not in BV,0.90,0.60,cubic,-0.938,0.580,0.528,11.612,0.000,3.872,3.872,3.872,90.0,90.0,90.0,1.708
CoTeO3,Co,Te,FALSE,2,4,0.90,0.97,cubic,-0.569,0.709,0.444,13.789,0.000,4.100,4.100,4.100,90.0,90.0,90.0,-
CoThO3,Co,Th,FALSE,2,4,0.90,0.94,cubic,-1.851,1.188,0.584,18.647,0.000,4.534,4.534,4.534,90.0,90.0,90.0,1.599
CoTiO3,Co,Ti,FALSE,2,4,0.90,0.61,cubic,-1.963,0.525,0.600,11.159,0.677,3.821,3.821,3.821,90.0,90.0,90.0,1.218
CoTlO3,Co,Tl,FALSE,3,3,0.61,0.89,rhombohedral,-0.891,0.205,0.798,13.149,0.558,5.829,5.829,5.829,57.3,57.3,57.3,-3.062
CoTmO3,Co,Tm,FALSE,3,3,0.61,0.88,cubic,-1.431,1.161,0.800,14.777,0.000,4.196,4.196,4.196,90.0,90.0,90.0,-3.057
CoUO3,Co,U,FALSE,2,4,0.90,0.89,cubic,-2.000,0.789,-0.312,15.890,0.000,4.299,4.299,4.299,90.0,90.0,90.0,-
CoVO3,Co,V,FALSE,2,4,0.90,0.58,cubic,-1.519,0.485,0.401,10.467,0.000,3.740,3.740,3.740,90.0,90.0,90.0,1.271
CoWO3,Co,W,FALSE,3,3,0.61,0.66,cubic,-1.380,0.577,0.495,11.830,0.000,3.896,3.896,3.896,90.0,90.0,90.0,-
CoYO3,Co,Y,FALSE,3,3,0.61,0.90,rhombohedral,-2.413,0.118,0.800,13.471,1.763,5.999,5.999,5.999,54.9,54.9,54.9,-4.168
CoYbO3,Co,Yb,FALSE,3,3,0.61,0.87,orthorhombic,-1.924,0.185,1.000,12.263,0.000,5.273,5.534,8.405,90.0,90.0,90.0,-
CoZnO3,Co,Zn,FALSE,not balanced,not balanced,0.90,0.74,cubic,-0.332,0.955,0.767,10.787,0.000,3.778,3.778,3.778,90.0,90.0,90.0,-
CoZrO3,Co,Zr,FALSE,2,4,0.90,0.72,cubic,-1.951,0.726,0.599,13.778,0.000,4.099,4.099,4.099,90.0,90.0,90.0,-0.141
CrAcO3,Cr,Ac,FALSE,element not in BV,element not in BV,0.57,1.12,rhombohedral,-2.790,0.348,0.600,16.754,1.802,6.388,6.388,6.388,56.1,56.1,56.1,-4.273
CrAgO3,Cr,Ag,FALSE,5,1,0.57,1.15,cubic,-0.164,1.223,0.699,12.660,0.000,3.985,3.985,3.985,90.0,90.0,90.0,-5.608
CrAlO3,Cr,Al,FALSE,not balanced,not balanced,0.57,0.54,cubic,-2.105,0.768,0.600,9.626,0.000,3.638,3.638,3.638,90.0,90.0,90.0,-0.850
CrAsO3,Cr,As,FALSE,not balanced,not balanced,0.57,0.52,cubic,-1.157,0.807,0.891,10.751,0.000,3.774,3.774,3.774,90.0,90.0,90.0,0.855
CrAuO3,Cr,Au,FALSE,element not in BV,element not in BV,0.57,0.93,cubic,-0.171,1.210,0.755,13.102,0.000,4.031,4.031,4.031,90.0,90.0,90.0,-
CrBO3,Cr,B,FALSE,3,3,0.62,0.27,cubic,-1.270,1.319,0.600,7.418,0.000,3.335,3.335,3.335,90.0,90.0,90.0,-0.827
CrBaO3,Cr,Ba,FALSE,not balanced,not balanced,0.57,1.35,orthorhombic,-2.445,0.140,0.400,15.958,1.275,5.018,5.889,10.801,90.0,90.0,90.0,-
CrBeO3,Cr,Be,FALSE,not balanced,not balanced,0.57,0.45,cubic,-1.504,0.949,0.401,8.027,0.000,3.424,3.424,3.424,90.0,90.0,90.0,-4.090
CrBiO3,Cr,Bi,FALSE,not balanced,not balanced,0.57,0.90,rhombohedral,-1.648,0.330,0.600,15.008,0.703,6.205,6.205,6.205,55.2,55.2,55.2,-
CrCaO3,Cr,Ca,FALSE,not balanced,not balanced,0.57,1.00,orthorhombic,-2.452,0.213,0.400,12.774,1.198,5.466,5.481,8.527,90.0,90.0,90.0,-
CrCdO3,Cr,Cd,FALSE,not balanced,not balanced,0.57,0.95,cubic,-0.327,1.495,0.656,13.666,0.000,4.088,4.088,4.088,90.0,90.0,90.0,-6.622
CrCeO3,Cr,Ce,FALSE,2,4,0.80,0.87,rhombohedral,-2.713,0.369,0.600,15.568,1.726,6.225,6.225,6.225,56.2,56.2,56.2,-5.240
CrCoO3,Cr,Co,FALSE,2,4,0.80,0.53,cubic,-0.951,0.926,0.505,9.798,0.000,3.659,3.659,3.659,90.0,90.0,90.0,-1.758
Cr2O3,Cr,Cr,FALSE,not balanced,not balanced,0.57,0.58,cubic,-1.636,0.846,1.200,10.513,0.000,3.746,3.746,3.746,90.0,90.0,90.0,-0.172
CrCsO3,Cr,Cs,FALSE,not balanced,not balanced,0.57,1.67,-,-,-,-,-,-,-,-,-,-,-,-,-
CrCuO3,Cr,Cu,FALSE,5,1,0.57,0.77,cubic,-0.663,0.935,0.628,9.999,0.000,3.684,3.684,3.684,90.0,90.0,90.0,-3.867
CrDyO3,Cr,Dy,FALSE,not balanced,not balanced,0.57,0.99,cubic,-1.738,1.465,0.817,15.988,0.000,4.308,4.308,4.308,90.0,90.0,90.0,-4.771
CrErO3,Cr,Er,FALSE,not balanced,not balanced,0.57,0.89,cubic,-1.790,1.427,0.917,15.601,0.000,4.273,4.273,4.273,90.0,90.0,90.0,-4.650
CrEuO3,Cr,Eu,FALSE,not balanced,not balanced,0.57,1.06,orthorhombic,-2.580,0.220,0.400,13.527,1.121,5.536,5.596,8.733,90.0,90.0,90.0,-7.628
CrFeO3,Cr,Fe,FALSE,2,4,0.80,0.59,cubic,-1.212,0.854,1.600,10.500,0.000,3.744,3.744,3.744,90.0,90.0,90.0,-1.245
CrGaO3,Cr,Ga,FALSE,not balanced,not balanced,0.57,0.62,cubic,-1.319,0.972,0.600,10.869,0.000,3.788,3.788,3.788,90.0,90.0,90.0,-2.490
CrGdO3,Cr,Gd,FALSE,not balanced,not balanced,0.57,0.94,rhombohedral,-2.842,0.343,0.600,14.076,1.599,6.077,6.077,6.077,55.1,55.1,55.1,-5.024
CrGeO3,Cr,Ge,FALSE,2,4,0.80,0.53,cubic,-1.485,0.606,0.801,10.190,0.000,3.707,3.707,3.707,90.0,90.0,90.0,1.771
CrHfO3,Cr,Hf,FALSE,2,4,0.80,0.71,cubic,-2.540,0.590,0.799,13.358,0.000,4.057,4.057,4.057,90.0,90.0,90.0,1.664
CrHgO3,Cr,Hg,FALSE,not balanced,not balanced,0.57,1.11,cubic,-0.046,1.406,0.763,14.080,0.000,4.129,4.129,4.129,90.0,90.0,90.0,-6.395
CrHoO3,Cr,Ho,FALSE,not balanced,not balanced,0.57,0.90,cubic,-1.776,1.435,0.776,15.755,0.000,4.287,4.287,4.287,90.0,90.0,90.0,-4.611
CrInO3,Cr,In,FALSE,not balanced,not balanced,0.57,0.80,cubic,-0.883,1.280,0.764,14.434,0.000,4.163,4.163,4.163,90.0,90.0,90.0,-4.195
CrIrO3,Cr,Ir,FALSE,2,4,0.80,0.63,cubic,-0.788,0.931,0.652,11.779,0.000,3.891,3.891,3.891,90.0,90.0,90.0,0.540
CrKO3,Cr,K,FALSE,5,1,0.57,1.38,cubic,0.388,2.436,0.198,17.573,0.000,4.446,4.446,4.446,90.0,90.0,90.0,-11.474
CrLaO3,Cr,La,FALSE,not balanced,not balanced,0.57,1.03,rhombohedral,-2.821,0.347,0.600,15.593,1.759,6.264,6.264,6.264,55.6,55.6,55.6,-4.876
CrLiO3,Cr,Li,FALSE,not balanced,not balanced,0.57,0.76,cubic,-0.787,1.276,0.199,8.880,0.000,3.541,3.541,3.541,90.0,90.0,90.0,-5.755
CrLuO3,Cr,Lu,FALSE,not balanced,not balanced,0.57,0.86,cubic,-1.847,1.386,0.798,14.807,0.000,4.199,4.199,4.199,90.0,90.0,90.0,-4.685
CrMgO3,Cr,Mg,FALSE,not balanced,not balanced,0.57,0.72,cubic,-1.061,1.440,1.381,10.965,0.000,3.799,3.799,3.799,90.0,90.0,90.0,-
CrMnO3,Cr,Mn,FALSE,2,4,0.80,0.53,cubic,-1.433,0.817,1.400,10.438,0.000,3.737,3.737,3.737,90.0,90.0,90.0,-1.205
CrMoO3,Cr,Mo,FALSE,2,4,0.80,0.65,orthorhombic,-1.952,0.259,1.179,10.908,0.000,5.227,5.435,7.679,90.0,90.0,90.0,4.002
CrNaO3,Cr,Na,FALSE,5,1,0.57,1.02,orthorhombic,-1.835,0.178,0.199,12.402,1.077,5.219,5.228,9.089,90.0,90.0,90.0,-8.454
CrNbO3,Cr,Nb,FALSE,2,4,0.80,0.68,orthorhombic,-2.348,0.139,0.880,11.230,0.000,5.231,5.566,7.715,90.0,90.0,90.0,4.426
CrNdO3,Cr,Nd,FALSE,not balanced,not balanced,0.57,0.98,rhombohedral,-2.757,0.364,0.600,14.921,1.526,6.143,6.143,6.143,56.1,56.1,56.1,-5.414
CrNiO3,Cr,Ni,FALSE,2,4,0.80,0.48,cubic,-0.812,0.960,0.797,9.891,0.000,3.671,3.671,3.671,90.0,90.0,90.0,-3.321
CrNpO3,Cr,Np,FALSE,element not in BV,element not in BV,0.57,0.86,orthorhombic,-2.849,0.234,1.400,13.382,1.711,5.474,5.787,8.449,90.0,90.0,90.0,0.952
CrOsO3,Cr,Os,FALSE,element not in BV,element not in BV,0.57,0.57,cubic,-1.061,0.702,0.933,11.591,0.000,3.870,3.870,3.870,90.0,90.0,90.0,2.059
CrPaO3,Cr,Pa,FALSE,element not in BV,element not in BV,0.57,0.91,rhombohedral,-2.597,0.090,1.000,14.440,1.247,5.985,5.985,5.985,57.9,57.9,57.9,5.275
CrPbO3,Cr,Pb,FALSE,2,4,0.80,0.78,orthorhombic,-1.506,0.364,0.584,13.118,0.000,5.597,5.687,8.242,90.0,90.0,90.0,-
CrPdO3,Cr,Pd,FALSE,2,4,0.80,0.62,cubic,-0.537,0.989,0.630,12.100,0.000,3.926,3.926,3.926,90.0,90.0,90.0,-2.471
CrPmO3,Cr,Pm,FALSE,element not in BV,element not in BV,0.57,0.97,rhombohedral,-2.782,0.360,0.600,14.622,1.581,6.107,6.107,6.107,56.0,56.0,56.0,-5.027
CrPrO3,Cr,Pr,FALSE,2,4,0.80,0.85,rhombohedral,-2.737,0.367,0.600,15.218,1.798,6.182,6.182,6.182,56.1,56.1,56.1,-5.186
CrPtO3,Cr,Pt,FALSE,element not in BV,element not in BV,0.57,0.67,cubic,-0.512,1.077,0.677,12.229,0.000,3.940,3.940,3.940,90.0,90.0,90.0,-1.005
CrPuO3,Cr,Pu,FALSE,element not in BV,element not in BV,0.57,0.83,orthorhombic,-2.792,0.329,1.600,13.547,0.404,5.721,5.752,8.233,90.0,90.0,90.0,-
CrRbO3,Cr,Rb,FALSE,5,1,0.57,1.52,cubic,0.555,2.602,0.726,15.945,0.000,4.304,4.304,4.304,90.0,90.0,90.0,-13.863
CrReO3,Cr,Re,FALSE,2,4,0.80,0.63,cubic,-1.478,0.532,0.970,11.696,0.000,3.881,3.881,3.881,90.0,90.0,90.0,3.167
CrRhO3,Cr,Rh,FALSE,2,4,0.80,0.60,cubic,-0.789,0.919,0.526,11.675,0.000,3.879,3.879,3.879,90.0,90.0,90.0,-0.438
CrRuO3,Cr,Ru,FALSE,2,4,0.80,0.62,cubic,-1.033,0.778,0.820,11.469,0.000,3.856,3.856,3.856,90.0,90.0,90.0,0.896
CrSbO3,Cr,Sb,FALSE,2,4,0.80,0.68,cubic,-1.354,0.677,0.947,12.671,0.000,3.986,3.986,3.986,90.0,90.0,90.0,2.010
CrScO3,Cr,Sc,FALSE,not balanced,not balanced,0.57,0.75,cubic,-2.009,1.135,0.600,12.979,0.000,4.019,4.019,4.019,90.0,90.0,90.0,-3.180
CrSiO3,Cr,Si,FALSE,2,4,0.80,0.40,cubic,-2.168,0.549,0.800,8.808,0.000,3.531,3.531,3.531,90.0,90.0,90.0,4.290
CrSmO3,Cr,Sm,FALSE,not balanced,not balanced,0.57,0.96,rhombohedral,-2.799,0.352,0.600,14.555,1.635,6.143,6.143,6.143,55.2,55.2,55.2,-5.258
CrSnO3,Cr,Sn,FALSE,2,4,0.80,0.69,cubic,-1.374,0.760,0.800,12.899,0.000,4.010,4.010,4.010,90.0,90.0,90.0,0.712
CrSrO3,Cr,Sr,FALSE,not balanced,not balanced,0.57,1.18,orthorhombic,-2.443,0.159,0.400,14.672,1.367,5.503,5.603,9.517,90.0,90.0,90.0,-14.856
CrTaO3,Cr,Ta,FALSE,2,4,0.80,0.68,orthorhombic,-2.527,0.134,0.950,11.480,0.000,5.398,5.501,7.732,90.0,90.0,90.0,5.251
CrTbO3,Cr,Tb,FALSE,2,4,0.80,0.76,orthorhombic,-2.724,0.340,0.600,12.563,1.461,5.492,5.623,8.135,90.0,90.0,90.0,-4.733
CrTcO3,Cr,Tc,FALSE,element not in BV,element not in BV,0.57,0.60,cubic,-1.435,0.571,0.967,11.550,0.000,3.865,3.865,3.865,90.0,90.0,90.0,-
CrTeO3,Cr,Te,FALSE,2,4,0.80,0.97,cubic,-1.024,0.801,0.945,13.564,0.000,4.078,4.078,4.078,90.0,90.0,90.0,1.393
CrThO3,Cr,Th,FALSE,2,4,0.80,0.94,cubic,-2.332,1.037,0.798,18.333,0.000,4.509,4.509,4.509,90.0,90.0,90.0,-0.954
CrTiO3,Cr,Ti,FALSE,2,4,0.80,0.61,orthorhombic,-2.743,0.062,0.800,10.181,0.326,5.067,5.350,7.511,90.0,90.0,90.0,1.738
CrTlO3,Cr,Tl,FALSE,not balanced,not balanced,0.57,1.20,orthorhombic,-1.402,0.307,0.600,12.364,0.634,5.379,5.506,8.350,90.0,90.0,90.0,-5.530
CrTmO3,Cr,Tm,FALSE,not balanced,not balanced,0.57,0.96,cubic,-1.871,1.358,0.591,15.307,0.000,4.246,4.246,4.246,90.0,90.0,90.0,-4.111
CrUO3,Cr,U,FALSE,2,4,0.80,0.89,cubic,-2.557,0.562,1.200,15.939,0.000,4.303,4.303,4.303,90.0,90.0,90.0,3.426
CrVO3,Cr,V,FALSE,2,4,0.80,0.58,cubic,-1.913,0.643,0.890,10.584,0.000,3.754,3.754,3.754,90.0,90.0,90.0,1.672
CrWO3,Cr,W,FALSE,2,4,0.80,0.66,orthorhombic,-1.948,0.286,0.881,11.119,0.000,5.390,5.397,7.644,90.0,90.0,90.0,4.578
CrYO3,Cr,Y,FALSE,not balanced,not balanced,0.57,0.90,cubic,-1.668,1.510,1.196,16.248,0.000,4.331,4.331,4.331,90.0,90.0,90.0,-5.199
CrYbO3,Cr,Yb,FALSE,not balanced,not balanced,0.57,0.95,orthorhombic,-2.577,0.212,0.400,12.452,1.209,5.434,5.434,8.434,90.0,90.0,90.0,-6.976
CrZnO3,Cr,Zn,FALSE,not balanced,not balanced,0.57,0.74,cubic,-0.770,1.184,0.557,10.930,0.000,3.795,3.795,3.795,90.0,90.0,90.0,-4.986
CrZrO3,Cr,Zr,FALSE,2,4,0.80,0.72,cubic,-2.348,0.659,0.801,13.972,0.000,4.118,4.118,4.118,90.0,90.0,90.0,1.022
CsAcO3,Cs,Ac,FALSE,element not in BV,element not in BV,1.88,1.12,cubic,-2.055,0.299,0.000,19.906,0.000,4.634,4.634,4.634,90.0,90.0,90.0,-0.399
CsAgO3,Cs,Ag,FALSE,not balanced,not balanced,1.88,0.95,cubic,-0.198,0.550,-,15.002,0.000,4.217,4.217,4.217,90.0,90.0,90.0,-1.780
CsAlO3,Cs,Al,FALSE,not balanced,not balanced,1.88,0.54,cubic,-1.560,0.683,-,12.303,0.000,3.948,3.948,3.948,90.0,90.0,90.0,-2.088
CsAsO3,Cs,As,FALSE,not balanced,not balanced,1.88,0.52,cubic,-0.974,0.728,-,13.147,0.000,4.036,4.036,4.036,90.0,90.0,90.0,-1.415
CsAuO3,Cs,Au,FALSE,element not in BV,element not in BV,1.88,0.93,tetragonal,-0.336,0.409,-,17.950,0.000,3.941,3.941,5.779,90.0,90.0,90.0,-1.443
CsBO3,Cs,B,FALSE,not balanced,not balanced,1.88,0.27,cubic,-0.208,1.820,-,10.107,0.000,3.697,3.697,3.697,90.0,90.0,90.0,-4.259
CsBaO3,Cs,Ba,FALSE,not balanced,not balanced,1.88,1.35,cubic,-1.047,0.709,-,20.867,0.000,4.708,4.708,4.708,90.0,90.0,90.0,-1.616
CsBeO3,Cs,Be,FALSE,not balanced,not balanced,1.88,0.45,cubic,-0.663,1.166,-,10.976,0.000,3.800,3.800,3.800,90.0,90.0,90.0,-3.349
CsBiO3,Cs,Bi,FALSE,1,5,1.88,0.76,cubic,-1.219,0.184,-,16.633,0.000,4.365,4.365,4.365,90.0,90.0,90.0,-0.223
CsCaO3,Cs,Ca,FALSE,not balanced,not balanced,1.88,1.00,cubic,-1.155,0.765,-,18.657,0.000,4.535,4.535,4.535,90.0,90.0,90.0,-1.791
CsCdO3,Cs,Cd,FALSE,not balanced,not balanced,1.88,0.95,cubic,-0.457,0.680,-,16.579,0.000,4.360,4.360,4.360,90.0,90.0,90.0,-1.863
CsCeO3,Cs,Ce,FALSE,not balanced,not balanced,1.88,0.94,cubic,-1.947,0.377,0.400,20.968,0.000,4.715,4.715,4.715,90.0,90.0,90.0,-0.693
CsCoO3,Cs,Co,FALSE,not balanced,not balanced,1.88,0.63,-,-,-,-,-,-,-,-,-,-,-,-,-
CsCrO3,Cs,Cr,FALSE,not balanced,not balanced,1.88,0.58,-,-,-,-,-,-,-,-,-,-,-,-,-
Cs2O3,Cs,Cs,FALSE,not balanced,not balanced,1.88,1.67,cubic,-0.241,0.887,-,18.689,0.000,4.538,4.538,4.538,90.0,90.0,90.0,-1.385
CsCuO3,Cs,Cu,FALSE,not balanced,not balanced,1.88,0.68,cubic,-0.291,0.708,-,12.642,0.000,3.983,3.983,3.983,90.0,90.0,90.0,-2.369
CsDyO3,Cs,Dy,FALSE,not balanced,not balanced,1.88,0.99,cubic,-2.108,0.380,0.400,18.510,0.000,4.523,4.523,4.523,90.0,90.0,90.0,-0.750
CsErO3,Cs,Er,FALSE,not balanced,not balanced,1.88,0.89,cubic,-2.133,0.379,0.399,18.013,0.000,4.483,4.483,4.483,90.0,90.0,90.0,-0.710
CsEuO3,Cs,Eu,FALSE,not balanced,not balanced,1.88,1.06,cubic,-1.424,0.577,0.600,19.375,0.000,4.593,4.593,4.593,90.0,90.0,90.0,-0.967
CsFeO3,Cs,Fe,FALSE,not balanced,not balanced,1.88,0.67,tetragonal,-1.164,0.289,0.693,15.308,0.000,3.707,3.707,5.569,90.0,90.0,90.0,-
CsGaO3,Cs,Ga,FALSE,not balanced,not balanced,1.88,0.62,cubic,-1.017,0.598,-,13.428,0.000,4.064,4.064,4.064,90.0,90.0,90.0,-2.267
CsGdO3,Cs,Gd,FALSE,not balanced,not balanced,1.88,0.94,rhombohedral,-2.078,0.382,0.400,18.986,0.000,6.452,6.452,6.452,60.0,60.0,60.0,-0.807
CsGeO3,Cs,Ge,FALSE,not balanced,not balanced,1.88,0.63,tetragonal,-1.434,0.185,-,15.546,0.000,3.628,3.628,5.906,90.0,90.0,90.0,-1.689
CsHfO3,Cs,Hf,FALSE,not balanced,not balanced,1.88,0.71,cubic,-2.615,0.174,0.200,15.262,0.000,4.242,4.242,4.242,90.0,90.0,90.0,0.021
CsHgO3,Cs,Hg,FALSE,not balanced,not balanced,1.88,1.11,cubic,-0.227,0.597,-,16.515,0.000,4.355,4.355,4.355,90.0,90.0,90.0,-1.723
CsHoO3,Cs,Ho,FALSE,not balanced,not balanced,1.88,0.90,rhombohedral,-2.121,0.379,0.400,18.238,0.000,6.351,6.351,6.351,60.3,60.3,60.3,-
CsInO3,Cs,In,FALSE,not balanced,not balanced,1.88,0.80,orthorhombic,-0.982,0.516,-,16.380,0.000,6.137,6.147,8.685,90.0,90.0,90.0,-1.628
CsIrO3,Cs,Ir,FALSE,not balanced,not balanced,1.88,0.63,tetragonal,-1.021,0.240,0.002,16.099,0.000,3.841,3.841,5.455,90.0,90.0,90.0,0.372
CsKO3,Cs,K,FALSE,not balanced,not balanced,1.88,1.38,cubic,0.099,1.247,-,21.871,0.000,4.782,4.782,4.782,90.0,90.0,90.0,-7.081
CsLaO3,Cs,La,FALSE,not balanced,not balanced,1.88,1.03,rhombohedral,-2.066,0.354,0.400,20.151,0.000,6.582,6.582,6.582,60.0,60.0,60.0,-0.757
CsLiO3,Cs,Li,FALSE,not balanced,not balanced,1.88,0.76,cubic,-0.212,1.078,-,12.975,0.000,4.018,4.018,4.018,90.0,90.0,90.0,-3.211
CsLuO3,Cs,Lu,FALSE,not balanced,not balanced,1.88,0.86,cubic,-2.164,0.381,0.401,17.185,0.000,4.413,4.413,4.413,90.0,90.0,90.0,-0.707
CsMgO3,Cs,Mg,FALSE,not balanced,not balanced,1.88,0.72,cubic,-1.026,0.795,-,14.209,0.000,4.142,4.142,4.142,90.0,90.0,90.0,-2.138
CsMnO3,Cs,Mn,FALSE,not balanced,not balanced,1.88,0.62,-,-,-,-,-,-,-,-,-,-,-,-,-
CsMoO3,Cs,Mo,FALSE,not balanced,not balanced,1.88,0.62,tetragonal,-2.032,0.148,0.028,16.169,0.000,3.904,3.904,5.304,90.0,90.0,90.0,3.729
CsNaO3,Cs,Na,FALSE,not balanced,not balanced,1.88,1.02,cubic,-0.060,1.116,-,17.112,0.000,4.406,4.406,4.406,90.0,90.0,90.0,-2.711
CsNbO3,Cs,Nb,FALSE,1,5,1.88,0.64,tetragonal,-2.601,0.075,0.000,16.947,1.792,3.950,3.950,5.431,90.0,90.0,90.0,4.366
CsNdO3,Cs,Nd,FALSE,not balanced,not balanced,1.88,0.98,cubic,-1.994,0.380,0.400,20.071,0.000,4.647,4.647,4.647,90.0,90.0,90.0,-0.760
CsNiO3,Cs,Ni,FALSE,not balanced,not balanced,1.88,0.59,-,-,-,-,-,-,-,-,-,-,-,-,-
CsNpO3,Cs,Np,FALSE,element not in BV,element not in BV,1.88,0.86,rhombohedral,-2.767,-0.056,0.400,17.012,1.131,6.238,6.238,6.238,59.6,59.6,59.6,1.176
CsOsO3,Cs,Os,FALSE,element not in BV,element not in BV,1.88,0.57,tetragonal,-1.279,0.146,0.003,15.824,0.000,3.829,3.829,5.397,90.0,90.0,90.0,-
CsPaO3,Cs,Pa,FALSE,element not in BV,element not in BV,1.88,0.91,orthorhombic,-2.871,-0.298,0.000,17.747,3.798,6.308,6.309,8.919,90.0,90.0,90.0,5.841
CsPbO3,Cs,Pb,FALSE,not balanced,not balanced,1.88,0.99,rhombohedral,-0.951,0.274,-,17.288,0.000,6.253,6.253,6.253,60.0,60.0,60.0,-1.132
CsPdO3,Cs,Pd,FALSE,not balanced,not balanced,1.88,0.75,tetragonal,-0.589,0.313,-,15.932,0.000,3.925,3.925,5.171,90.0,90.0,90.0,-1.269
CsPmO3,Cs,Pm,FALSE,element not in BV,element not in BV,1.88,0.97,cubic,-2.019,0.383,0.400,19.667,0.000,4.616,4.616,4.616,90.0,90.0,90.0,-0.786
CsPrO3,Cs,Pr,FALSE,not balanced,not balanced,1.88,0.92,cubic,-1.973,0.378,0.400,20.493,0.000,4.679,4.679,4.679,90.0,90.0,90.0,-0.746
CsPtO3,Cs,Pt,FALSE,element not in BV,element not in BV,1.88,0.67,tetragonal,-0.724,0.278,0.174,16.274,0.000,3.909,3.909,5.325,90.0,90.0,90.0,-0.777
CsPuO3,Cs,Pu,FALSE,element not in BV,element not in BV,1.88,0.83,cubic,-2.492,-0.051,0.600,17.584,0.000,4.447,4.447,4.447,90.0,90.0,90.0,-
CsRbO3,Cs,Rb,FALSE,not balanced,not balanced,1.88,1.52,cubic,0.101,1.234,-,20.592,0.000,4.687,4.687,4.687,90.0,90.0,90.0,-2.456
CsReO3,Cs,Re,FALSE,1,5,1.88,0.58,tetragonal,-1.663,0.267,0.207,16.777,0.000,3.848,3.848,5.665,90.0,90.0,90.0,3.478
CsRhO3,Cs,Rh,FALSE,not balanced,not balanced,1.88,0.61,tetragonal,-0.944,0.216,0.385,16.097,0.000,3.881,3.881,5.343,90.0,90.0,90.0,-0.371
CsRuO3,Cs,Ru,FALSE,1,5,1.88,0.57,tetragonal,-1.157,0.264,0.002,14.074,0.000,3.914,3.914,4.595,90.0,90.0,90.0,0.864
CsSbO3,Cs,Sb,FALSE,1,5,1.88,0.60,tetragonal,-1.628,0.179,-,18.125,0.000,3.789,3.789,6.312,90.0,90.0,90.0,0.820
CsScO3,Cs,Sc,FALSE,not balanced,not balanced,1.88,0.75,rhombohedral,-2.068,0.400,0.401,15.603,0.000,6.040,6.040,6.040,60.1,60.1,60.1,-1.006
CsSiO3,Cs,Si,FALSE,not balanced,not balanced,1.88,0.40,cubic,-1.435,1.050,-,11.283,0.000,3.835,3.835,3.835,90.0,90.0,90.0,-1.860
CsSmO3,Cs,Sm,FALSE,not balanced,not balanced,1.88,0.96,rhombohedral,-2.031,0.383,0.400,19.570,0.000,6.511,6.511,6.511,60.1,60.1,60.1,-0.817
CsSnO3,Cs,Sn,FALSE,not balanced,not balanced,1.88,0.69,cubic,-1.378,0.308,-,15.157,0.000,4.232,4.232,4.232,90.0,90.0,90.0,-0.745
CsSrO3,Cs,Sr,FALSE,not balanced,not balanced,1.88,1.18,cubic,-1.055,0.765,-,21.056,0.000,4.722,4.722,4.722,90.0,90.0,90.0,-1.786
CsTaO3,Cs,Ta,FALSE,1,5,1.88,0.64,tetragonal,-2.796,0.049,0.000,16.951,2.565,3.905,3.905,5.558,90.0,90.0,90.0,-
CsTbO3,Cs,Tb,FALSE,not balanced,not balanced,1.88,0.84,cubic,-1.962,0.381,0.400,18.761,0.000,4.544,4.544,4.544,90.0,90.0,90.0,-0.762
CsTcO3,Cs,Tc,FALSE,element not in BV,element not in BV,1.88,0.60,tetragonal,-1.629,0.174,0.293,16.060,0.000,3.879,3.879,5.337,90.0,90.0,90.0,2.437
CsTeO3,Cs,Te,FALSE,1,5,1.88,0.77,tetragonal,-1.442,0.123,-,17.715,0.000,4.033,4.033,5.447,90.0,90.0,90.0,0.598
CsThO3,Cs,Th,FALSE,not balanced,not balanced,1.88,0.94,tetragonal,-2.816,0.211,0.199,19.628,0.000,4.600,4.600,4.638,90.0,90.0,90.0,0.428