Chemical formula,A,B,In literature,Valence A,Valence B,Radius A [ang],Radius B [ang],Lowest distortion,Formation energy [eV/atom],Stability [eV/atom],Magnetic moment [mu_B],Volume per atom [A^3/atom],Band gap [eV],a [ang],b [ang],c [ang],alpha [deg],beta [deg],gamma [deg],Vacancy energy [eV/O atom]
TbHoO3,Tb,Ho,FALSE,4,2,0.88,0.90,cubic,-2.854,0.863,0.000,15.230,1.749,4.239,4.239,4.239,90.0,90.0,90.0,1.499
TbInO3,Tb,In,FALSE,not balanced,not balanced,1.10,0.80,cubic,-2.046,0.657,0.000,13.737,1.737,4.095,4.095,4.095,90.0,90.0,90.0,2.768
TbIrO3,Tb,Ir,FALSE,1,5,1.10,0.57,cubic,-1.540,0.719,0.000,12.356,0.000,3.953,3.953,3.953,90.0,90.0,90.0,-0.798
TbKO3,Tb,K,FALSE,not balanced,not balanced,1.10,1.38,orthorhombic,-1.907,0.450,0.400,18.124,0.000,5.962,6.011,10.114,90.0,90.0,90.0,-3.824
TbLaO3,Tb,La,FALSE,not balanced,not balanced,1.10,1.03,cubic,-2.329,1.307,0.000,18.381,0.000,4.513,4.513,4.513,90.0,90.0,90.0,-2.626
TbLiO3,Tb,Li,FALSE,not balanced,not balanced,1.10,0.76,orthorhombic,-2.145,0.317,0.400,10.487,0.000,4.995,5.780,7.265,90.0,90.0,90.0,-1.235
TbLuO3,Tb,Lu,FALSE,not balanced,not balanced,1.10,0.86,cubic,-3.044,0.717,0.000,14.289,2.003,4.149,4.149,4.149,90.0,90.0,90.0,4.647
TbMgO3,Tb,Mg,FALSE,4,2,0.88,0.72,orthorhombic,-2.788,0.180,0.200,11.503,0.000,5.371,5.728,7.477,90.0,90.0,90.0,-1.354
TbMnO3,Tb,Mn,TRUE,3,3,1.10,0.65,orthorhombic,-2.822,0.002,0.800,11.406,0.258,5.301,5.731,7.508,90.0,90.0,90.0,3.520
TbMoO3,Tb,Mo,FALSE,1,5,1.10,0.61,cubic,-2.173,0.583,0.004,12.366,0.000,3.954,3.954,3.954,90.0,90.0,90.0,1.824
TbNaO3,Tb,Na,FALSE,not balanced,not balanced,1.10,1.02,cubic,-1.334,1.035,0.399,12.076,0.000,3.923,3.923,3.923,90.0,90.0,90.0,-2.714
TbNbO3,Tb,Nb,FALSE,1,5,1.10,0.64,cubic,-2.497,0.576,0.001,13.042,0.000,4.025,4.025,4.025,90.0,90.0,90.0,3.209
TbNdO3,Tb,Nd,FALSE,not balanced,not balanced,1.10,0.98,cubic,-2.388,1.202,0.000,17.645,0.664,4.452,4.452,4.452,90.0,90.0,90.0,-1.764
TbNiO3,Tb,Ni,FALSE,3,3,1.10,0.60,orthorhombic,-2.269,0.008,0.199,10.631,0.000,5.191,5.512,7.430,90.0,90.0,90.0,1.113
TbNpO3,Tb,Np,FALSE,element not in BV,element not in BV,1.10,0.86,cubic,-2.471,1.050,0.782,17.168,0.000,4.411,4.411,4.411,90.0,90.0,90.0,2.531
TbOsO3,Tb,Os,FALSE,element not in BV,element not in BV,1.10,0.57,cubic,-1.587,0.716,0.006,12.208,0.000,3.937,3.937,3.937,90.0,90.0,90.0,0.197
TbPaO3,Tb,Pa,FALSE,element not in BV,element not in BV,1.10,0.91,cubic,-2.271,0.903,0.292,17.768,0.000,4.462,4.462,4.462,90.0,90.0,90.0,2.759
TbPbO3,Tb,Pb,FALSE,2,4,1.10,0.78,cubic,-1.390,1.007,0.000,15.428,0.000,4.257,4.257,4.257,90.0,90.0,90.0,0.578
TbPdO3,Tb,Pd,FALSE,2,4,1.10,0.62,orthorhombic,-2.070,-0.030,0.005,12.007,0.000,5.400,5.895,7.543,90.0,90.0,90.0,-0.016
TbPmO3,Tb,Pm,FALSE,element not in BV,element not in BV,1.10,0.97,cubic,-2.478,1.140,0.000,17.160,1.041,4.411,4.411,4.411,90.0,90.0,90.0,-0.382
TbPrO3,Tb,Pr,FALSE,2,4,1.10,0.85,cubic,-2.304,1.264,0.000,18.119,0.479,4.491,4.491,4.491,90.0,90.0,90.0,-1.416
TbPtO3,Tb,Pt,FALSE,element not in BV,element not in BV,1.10,0.67,cubic,-1.451,0.677,0.000,12.925,0.000,4.013,4.013,4.013,90.0,90.0,90.0,-0.464
TbPuO3,Tb,Pu,FALSE,element not in BV,element not in BV,1.10,0.83,cubic,-2.518,1.078,0.919,16.564,0.000,4.359,4.359,4.359,90.0,90.0,90.0,-0.554
TbRbO3,Tb,Rb,FALSE,not balanced,not balanced,1.10,1.52,orthorhombic,-2.002,0.346,0.000,18.423,1.287,6.215,6.263,9.466,90.0,90.0,90.0,-3.294
TbReO3,Tb,Re,FALSE,1,5,1.10,0.58,cubic,-1.800,0.749,0.163,12.293,0.000,3.946,3.946,3.946,90.0,90.0,90.0,0.373
TbRhO3,Tb,Rh,TRUE,2,4,1.10,0.60,cubic,-1.747,0.537,0.000,12.011,0.000,3.916,3.916,3.916,90.0,90.0,90.0,-0.048
TbRuO3,Tb,Ru,FALSE,1,5,1.10,0.57,cubic,-1.802,0.560,0.125,11.999,0.000,3.915,3.915,3.915,90.0,90.0,90.0,0.762
TbSbO3,Tb,Sb,FALSE,3,3,1.10,0.76,cubic,-1.633,0.937,-0.001,14.898,0.000,4.208,4.208,4.208,90.0,90.0,90.0,1.071
TbScO3,Tb,Sc,FALSE,3,3,1.10,0.75,orthorhombic,-3.665,0.019,0.000,12.300,4.705,5.439,5.728,7.896,90.0,90.0,90.0,5.096
TbSiO3,Tb,Si,FALSE,3,3,1.10,0.40,cubic,-2.524,0.640,0.000,10.048,0.000,3.690,3.690,3.690,90.0,90.0,90.0,4.622
TbSmO3,Tb,Sm,FALSE,4,2,0.88,1.22,cubic,-2.535,1.096,0.000,16.841,1.073,4.383,4.383,4.383,90.0,90.0,90.0,-0.748
TbSnO3,Tb,Sn,FALSE,2,4,1.10,0.69,cubic,-1.904,0.811,0.000,13.819,0.000,4.103,4.103,4.103,90.0,90.0,90.0,2.278
TbSrO3,Tb,Sr,FALSE,4,2,0.88,1.18,orthorhombic,-2.747,0.270,0.106,16.647,0.000,5.845,5.857,9.725,90.0,90.0,90.0,-3.530
TbTaO3,Tb,Ta,FALSE,1,5,1.10,0.64,cubic,-2.574,0.617,0.001,12.830,0.000,4.003,4.003,4.003,90.0,90.0,90.0,3.252
Tb2O3,Tb,Tb,FALSE,not balanced,not balanced,1.10,0.84,cubic,-2.616,0.944,0.000,15.769,1.476,4.288,4.288,4.288,90.0,90.0,90.0,0.693
TbTcO3,Tb,Tc,FALSE,element not in BV,element not in BV,1.10,0.60,cubic,-1.977,0.568,0.314,12.175,0.000,3.934,3.934,3.934,90.0,90.0,90.0,1.296
TbTeO3,Tb,Te,FALSE,2,4,1.10,0.97,cubic,-1.320,1.096,0.002,15.185,0.000,4.234,4.234,4.234,90.0,90.0,90.0,0.900
TbThO3,Tb,Th,FALSE,2,4,1.10,0.94,cubic,-2.666,1.021,0.009,18.854,0.000,4.551,4.551,4.551,90.0,90.0,90.0,2.238
TbTiO3,Tb,Ti,TRUE,2,4,1.10,0.61,orthorhombic,-3.326,0.015,0.200,11.554,0.000,5.318,5.678,7.652,90.0,90.0,90.0,4.797
TbTlO3,Tb,Tl,FALSE,not balanced,not balanced,1.10,1.20,orthorhombic,-2.147,0.101,0.001,14.155,1.054,5.584,5.949,8.522,90.0,90.0,90.0,0.612
TbTmO3,Tb,Tm,FALSE,4,2,0.88,1.03,cubic,-2.963,0.783,0.000,14.730,1.890,4.192,4.192,4.192,90.0,90.0,90.0,2.365
TbUO3,Tb,U,FALSE,2,4,1.10,0.89,cubic,-2.464,1.035,0.556,16.794,0.000,4.379,4.379,4.379,90.0,90.0,90.0,1.950
TbVO3,Tb,V,TRUE,2,4,1.10,0.58,orthorhombic,-3.132,-0.037,0.400,11.514,1.093,5.318,5.670,7.638,90.0,90.0,90.0,4.039
TbWO3,Tb,W,FALSE,1,5,1.10,0.62,cubic,-2.094,0.666,0.000,12.425,0.000,3.961,3.961,3.961,90.0,90.0,90.0,1.370
TbYO3,Tb,Y,FALSE,not balanced,not balanced,1.10,0.90,cubic,-2.779,0.905,0.000,15.483,1.813,4.262,4.262,4.262,90.0,90.0,90.0,1.169
TbYbO3,Tb,Yb,FALSE,not balanced,not balanced,1.10,0.95,cubic,-2.281,0.903,0.196,13.774,0.000,4.099,4.099,4.099,90.0,90.0,90.0,-1.819
TbZnO3,Tb,Zn,FALSE,4,2,0.88,0.74,orthorhombic,-2.311,0.129,0.000,11.383,0.000,5.256,5.773,7.504,90.0,90.0,90.0,-0.127
TbZrO3,Tb,Zr,FALSE,2,4,1.10,0.72,cubic,-2.857,0.567,0.000,14.011,0.000,4.122,4.122,4.122,90.0,90.0,90.0,4.219
TcAcO3,Tc,Ac,FALSE,element not in BV,element not in BV,0.60,1.12,rhombohedral,-2.235,0.320,0.400,16.243,0.516,5.908,5.908,5.908,65.2,65.2,65.2,-6.497
TcAgO3,Tc,Ag,FALSE,element not in BV,element not in BV,0.60,0.95,tetragonal,-0.402,0.911,0.000,11.448,0.000,3.330,3.330,5.162,90.0,90.0,90.0,-7.876
TcAlO3,Tc,Al,FALSE,element not in BV,element not in BV,0.60,0.54,cubic,-1.521,0.877,0.798,9.821,0.000,3.662,3.662,3.662,90.0,90.0,90.0,0.406
TcAsO3,Tc,As,FALSE,element not in BV,element not in BV,0.60,0.52,cubic,-0.427,1.085,1.004,11.718,0.000,3.884,3.884,3.884,90.0,90.0,90.0,1.054
TcAuO3,Tc,Au,FALSE,element not in BV,element not in BV,0.60,0.93,cubic,0.439,1.709,0.948,13.258,0.000,4.047,4.047,4.047,90.0,90.0,90.0,-6.590
TcBO3,Tc,B,FALSE,element not in BV,element not in BV,0.60,0.27,cubic,-0.597,1.480,0.665,7.843,0.000,3.397,3.397,3.397,90.0,90.0,90.0,0.215
TcBaO3,Tc,Ba,FALSE,element not in BV,element not in BV,0.60,1.35,rhombohedral,-2.006,0.304,0.200,18.189,0.000,6.173,6.173,6.173,64.3,64.3,64.3,-12.144
TcBeO3,Tc,Be,FALSE,element not in BV,element not in BV,0.60,0.45,cubic,-1.058,1.149,0.471,7.976,0.000,3.416,3.416,3.416,90.0,90.0,90.0,-2.501
TcBiO3,Tc,Bi,FALSE,element not in BV,element not in BV,0.60,0.90,cubic,-0.214,1.297,0.987,15.528,0.000,4.266,4.266,4.266,90.0,90.0,90.0,0.497
TcCaO3,Tc,Ca,FALSE,element not in BV,element not in BV,0.60,1.00,rhombohedral,-2.037,0.285,0.600,14.506,0.538,6.060,6.060,6.060,56.6,56.6,56.6,-
TcCdO3,Tc,Cd,FALSE,element not in BV,element not in BV,0.60,0.95,orthorhombic,-1.121,0.394,0.374,12.375,0.000,5.572,5.671,7.833,90.0,90.0,90.0,-8.603
TcCeO3,Tc,Ce,FALSE,element not in BV,element not in BV,0.60,0.94,rhombohedral,-2.140,0.386,0.400,15.498,0.354,5.933,5.933,5.933,62.2,62.2,62.2,-6.743
TcCoO3,Tc,Co,FALSE,element not in BV,element not in BV,0.60,0.63,cubic,-0.368,1.150,0.751,9.859,0.000,3.667,3.667,3.667,90.0,90.0,90.0,-1.797
TcCrO3,Tc,Cr,FALSE,element not in BV,element not in BV,0.60,0.58,cubic,-0.987,1.019,1.399,11.009,0.000,3.804,3.804,3.804,90.0,90.0,90.0,-0.212
TcCsO3,Tc,Cs,FALSE,element not in BV,element not in BV,0.60,1.67,orthorhombic,-1.720,0.083,0.205,20.259,0.000,5.420,6.377,11.721,90.0,90.0,90.0,-
TcCuO3,Tc,Cu,FALSE,element not in BV,element not in BV,0.60,0.68,orthorhombic,-1.049,0.301,0.239,9.995,0.000,5.272,5.283,7.178,90.0,90.0,90.0,-4.069
TcDyO3,Tc,Dy,FALSE,element not in BV,element not in BV,0.60,0.99,cubic,-1.127,1.563,1.174,15.535,0.000,4.267,4.267,4.267,90.0,90.0,90.0,-5.504
TcErO3,Tc,Er,FALSE,element not in BV,element not in BV,0.60,0.89,cubic,-1.190,1.524,1.005,15.116,0.000,4.228,4.228,4.228,90.0,90.0,90.0,-5.164
TcEuO3,Tc,Eu,FALSE,element not in BV,element not in BV,0.60,1.06,rhombohedral,-2.167,0.362,0.200,14.492,0.000,5.750,5.750,5.750,63.5,63.5,63.5,-10.407
TcFeO3,Tc,Fe,FALSE,element not in BV,element not in BV,0.60,0.67,cubic,-0.574,1.054,1.795,11.036,0.000,3.807,3.807,3.807,90.0,90.0,90.0,-1.970
TcGaO3,Tc,Ga,FALSE,element not in BV,element not in BV,0.60,0.62,cubic,-0.745,1.070,0.800,10.886,0.000,3.790,3.790,3.790,90.0,90.0,90.0,-1.578
TcGdO3,Tc,Gd,FALSE,element not in BV,element not in BV,0.60,0.94,cubic,-1.064,1.598,1.190,16.122,0.000,4.320,4.320,4.320,90.0,90.0,90.0,-5.761
TcGeO3,Tc,Ge,FALSE,element not in BV,element not in BV,0.60,0.63,cubic,-0.791,0.852,0.996,10.762,0.000,3.775,3.775,3.775,90.0,90.0,90.0,2.263
TcHfO3,Tc,Hf,FALSE,element not in BV,element not in BV,0.60,0.71,cubic,-1.925,0.888,1.000,13.507,0.925,4.072,4.072,4.072,90.0,90.0,90.0,1.949
TcHgO3,Tc,Hg,FALSE,element not in BV,element not in BV,0.60,1.11,orthorhombic,-1.045,0.225,0.063,17.162,0.000,5.579,6.220,9.891,90.0,90.0,90.0,-8.700
TcHoO3,Tc,Ho,FALSE,element not in BV,element not in BV,0.60,0.90,cubic,-1.158,1.544,1.141,15.312,0.000,4.246,4.246,4.246,90.0,90.0,90.0,-5.353
TcInO3,Tc,In,FALSE,element not in BV,element not in BV,0.60,0.80,cubic,-0.280,1.407,0.861,13.742,0.000,4.096,4.096,4.096,90.0,90.0,90.0,-4.734
TcIrO3,Tc,Ir,FALSE,element not in BV,element not in BV,0.60,0.63,cubic,-0.060,1.280,0.785,12.103,0.000,3.926,3.926,3.926,90.0,90.0,90.0,0.352
TcKO3,Tc,K,FALSE,element not in BV,element not in BV,0.60,1.38,orthorhombic,-1.685,0.147,0.202,16.608,0.000,5.249,6.066,10.432,90.0,90.0,90.0,-12.599
TcLaO3,Tc,La,FALSE,element not in BV,element not in BV,0.60,1.03,rhombohedral,-2.237,0.384,0.400,15.148,0.323,5.756,5.756,5.756,65.7,65.7,65.7,-6.403
TcLiO3,Tc,Li,FALSE,element not in BV,element not in BV,0.60,0.76,orthorhombic,-1.657,0.190,0.003,9.255,0.000,4.781,5.006,7.734,90.0,90.0,90.0,-6.483
TcLuO3,Tc,Lu,FALSE,element not in BV,element not in BV,0.60,0.86,cubic,-1.302,1.444,0.798,14.614,0.000,4.181,4.181,4.181,90.0,90.0,90.0,-4.449
TcMgO3,Tc,Mg,FALSE,element not in BV,element not in BV,0.60,0.72,cubic,-0.782,1.417,0.596,10.541,0.000,3.749,3.749,3.749,90.0,90.0,90.0,-5.266
TcMnO3,Tc,Mn,FALSE,element not in BV,element not in BV,0.60,0.62,cubic,-0.791,1.043,1.600,10.948,0.000,3.797,3.797,3.797,90.0,90.0,90.0,-1.296
TcMoO3,Tc,Mo,FALSE,element not in BV,element not in BV,0.60,0.62,cubic,-0.972,0.831,0.891,12.171,0.000,3.933,3.933,3.933,90.0,90.0,90.0,3.431
TcNaO3,Tc,Na,FALSE,element not in BV,element not in BV,0.60,1.02,orthorhombic,-1.583,0.261,0.278,12.660,0.000,5.420,5.599,8.344,90.0,90.0,90.0,-12.735
TcNbO3,Tc,Nb,FALSE,element not in BV,element not in BV,0.60,0.68,cubic,-1.396,0.841,0.875,12.896,0.000,4.010,4.010,4.010,90.0,90.0,90.0,4.084
TcNdO3,Tc,Nd,FALSE,element not in BV,element not in BV,0.60,0.98,cubic,-0.883,1.693,1.201,17.367,0.000,4.428,4.428,4.428,90.0,90.0,90.0,-6.439
TcNiO3,Tc,Ni,FALSE,element not in BV,element not in BV,0.60,0.59,cubic,-0.255,1.262,1.001,10.060,0.000,3.691,3.691,3.691,90.0,90.0,90.0,-
TcNpO3,Tc,Np,FALSE,element not in BV,element not in BV,0.60,0.86,cubic,-1.357,1.380,1.470,16.322,0.000,4.338,4.338,4.338,90.0,90.0,90.0,-2.154
TcOsO3,Tc,Os,FALSE,element not in BV,element not in BV,0.60,0.57,cubic,-0.263,1.106,0.670,11.944,0.000,3.909,3.909,3.909,90.0,90.0,90.0,0.916
TcPaO3,Tc,Pa,FALSE,element not in BV,element not in BV,0.60,0.91,cubic,-1.468,0.901,0.879,16.628,0.000,4.365,4.365,4.365,90.0,90.0,90.0,4.073
TcPbO3,Tc,Pb,FALSE,element not in BV,element not in BV,0.60,0.99,rhombohedral,-1.202,0.347,0.200,15.550,0.000,5.733,5.733,5.733,67.9,67.9,67.9,-
TcPdO3,Tc,Pd,FALSE,element not in BV,element not in BV,0.60,0.75,cubic,0.128,1.409,0.863,12.148,0.000,3.931,3.931,3.931,90.0,90.0,90.0,-4.531
TcPmO3,Tc,Pm,FALSE,element not in BV,element not in BV,0.60,0.97,cubic,-0.938,1.665,1.199,17.004,0.000,4.397,4.397,4.397,90.0,90.0,90.0,-6.253
TcPrO3,Tc,Pr,FALSE,element not in BV,element not in BV,0.60,0.92,cubic,-0.835,1.719,1.201,17.717,0.000,4.458,4.458,4.458,90.0,90.0,90.0,-6.587
TcPtO3,Tc,Pt,FALSE,element not in BV,element not in BV,0.60,0.67,cubic,0.154,1.424,0.895,12.524,0.000,3.971,3.971,3.971,90.0,90.0,90.0,-1.353
TcPuO3,Tc,Pu,FALSE,element not in BV,element not in BV,0.60,0.83,cubic,-0.982,1.599,0.736,16.202,0.000,4.327,4.327,4.327,90.0,90.0,90.0,-5.615
TcRbO3,Tc,Rb,FALSE,element not in BV,element not in BV,0.60,1.52,orthorhombic,-1.703,0.117,0.200,18.037,0.000,5.190,6.226,11.163,90.0,90.0,90.0,-18.167
TcReO3,Tc,Re,FALSE,element not in BV,element not in BV,0.60,0.57,cubic,-0.612,0.923,0.833,11.994,0.000,3.914,3.914,3.914,90.0,90.0,90.0,2.227
TcRhO3,Tc,Rh,FALSE,element not in BV,element not in BV,0.60,0.61,cubic,-0.119,1.212,0.727,11.908,0.000,3.905,3.905,3.905,90.0,90.0,90.0,-2.310
TcRuO3,Tc,Ru,FALSE,element not in BV,element not in BV,0.60,0.62,cubic,-0.296,1.104,1.010,11.855,0.000,3.899,3.899,3.899,90.0,90.0,90.0,1.727
TcSbO3,Tc,Sb,FALSE,element not in BV,element not in BV,0.60,0.68,cubic,-0.530,1.025,0.941,13.500,0.000,4.072,4.072,4.072,90.0,90.0,90.0,2.076
TcScO3,Tc,Sc,FALSE,element not in BV,element not in BV,0.60,0.75,cubic,-1.409,1.260,0.799,12.796,0.000,4.000,4.000,4.000,90.0,90.0,90.0,-3.031
TcSiO3,Tc,Si,FALSE,element not in BV,element not in BV,0.60,0.40,cubic,-1.367,0.987,1.000,9.477,0.000,3.619,3.619,3.619,90.0,90.0,90.0,4.624
TcSmO3,Tc,Sm,FALSE,element not in BV,element not in BV,0.60,0.96,cubic,-0.969,1.647,1.194,16.800,0.000,4.380,4.380,4.380,90.0,90.0,90.0,-6.107
TcSnO3,Tc,Sn,FALSE,element not in BV,element not in BV,0.60,0.69,cubic,-0.756,0.927,1.000,13.115,0.571,4.033,4.033,4.033,90.0,90.0,90.0,2.883
TcSrO3,Tc,Sr,FALSE,element not in BV,element not in BV,0.60,1.18,rhombohedral,-2.028,0.267,0.200,16.585,0.000,6.245,6.245,6.245,58.4,58.4,58.4,-12.187
TcTaO3,Tc,Ta,FALSE,element not in BV,element not in BV,0.60,0.68,cubic,-1.579,0.867,0.848,12.659,0.000,3.985,3.985,3.985,90.0,90.0,90.0,4.418
TcTbO3,Tc,Tb,FALSE,element not in BV,element not in BV,0.60,0.84,cubic,-0.964,1.581,1.199,15.814,0.000,4.292,4.292,4.292,90.0,90.0,90.0,-5.648
Tc2O3,Tc,Tc,FALSE,element not in BV,element not in BV,0.60,0.60,cubic,-0.634,0.897,0.802,11.877,0.000,3.901,3.901,3.901,90.0,90.0,90.0,2.454
TcTeO3,Tc,Te,FALSE,element not in BV,element not in BV,0.60,0.77,cubic,-0.242,1.168,0.956,14.445,0.000,4.165,4.165,4.165,90.0,90.0,90.0,1.191
TcThO3,Tc,Th,FALSE,element not in BV,element not in BV,0.60,0.94,cubic,-1.642,1.410,1.007,18.745,0.000,4.542,4.542,4.542,90.0,90.0,90.0,-1.326
TcTiO3,Tc,Ti,FALSE,element not in BV,element not in BV,0.60,0.71,cubic,-1.681,0.775,1.000,11.572,0.562,3.868,3.868,3.868,90.0,90.0,90.0,1.360
TcTlO3,Tc,Tl,FALSE,element not in BV,element not in BV,0.60,1.20,orthorhombic,-1.284,0.179,0.220,17.253,0.000,5.492,5.946,10.567,90.0,90.0,90.0,-7.439
TcTmO3,Tc,Tm,FALSE,element not in BV,element not in BV,0.60,0.96,cubic,-1.237,1.494,0.910,15.023,0.000,4.219,4.219,4.219,90.0,90.0,90.0,-4.907
TcUO3,Tc,U,FALSE,element not in BV,element not in BV,0.60,0.85,cubic,-1.541,1.261,1.171,19.001,0.000,4.563,4.563,4.563,90.0,90.0,90.0,-0.303
TcVO3,Tc,V,FALSE,element not in BV,element not in BV,0.60,0.64,cubic,-1.206,0.874,1.192,11.127,0.000,3.817,3.817,3.817,90.0,90.0,90.0,0.505
TcWO3,Tc,W,FALSE,element not in BV,element not in BV,0.60,0.63,cubic,-1.022,0.934,0.859,12.190,0.000,3.935,3.935,3.935,90.0,90.0,90.0,3.392
TcYO3,Tc,Y,FALSE,element not in BV,element not in BV,0.60,0.90,cubic,-1.091,1.579,1.107,15.853,0.000,4.296,4.296,4.296,90.0,90.0,90.0,-5.568
TcYbO3,Tc,Yb,FALSE,element not in BV,element not in BV,0.60,0.95,orthorhombic,-2.156,0.345,0.325,12.456,0.000,5.481,5.802,7.834,90.0,90.0,90.0,-9.763
TcZnO3,Tc,Zn,FALSE,element not in BV,element not in BV,0.60,0.74,cubic,-0.202,1.478,0.778,10.967,0.000,3.799,3.799,3.799,90.0,90.0,90.0,-5.568
TcZrO3,Tc,Zr,FALSE,element not in BV,element not in BV,0.60,0.72,cubic,-1.736,0.954,1.000,14.060,0.841,4.127,4.127,4.127,90.0,90.0,90.0,3.573
TeAcO3,Te,Ac,FALSE,element not in BV,element not in BV,0.77,1.12,cubic,-1.138,1.236,0.008,19.929,0.000,4.636,4.636,4.636,90.0,90.0,90.0,-4.092
TeAgO3,Te,Ag,FALSE,not balanced,not balanced,0.77,0.95,orthorhombic,-0.828,0.147,-,13.484,0.000,5.650,6.099,7.827,90.0,90.0,90.0,-3.908
TeAlO3,Te,Al,FALSE,not balanced,not balanced,0.77,0.54,orthorhombic,-1.869,0.348,-,10.707,0.000,5.331,5.341,7.521,90.0,90.0,90.0,2.575
TeAsO3,Te,As,FALSE,not balanced,not balanced,0.77,0.52,cubic,-0.523,0.785,-,12.585,0.000,3.978,3.978,3.978,90.0,90.0,90.0,-0.792
TeAuO3,Te,Au,FALSE,element not in BV,element not in BV,0.77,0.93,cubic,0.136,1.028,-,13.841,0.000,4.106,4.106,4.106,90.0,90.0,90.0,-0.374
TeBO3,Te,B,FALSE,not balanced,not balanced,0.77,0.27,cubic,-0.659,1.238,-,8.683,0.000,3.515,3.515,3.515,90.0,90.0,90.0,0.384
TeBaO3,Te,Ba,FALSE,not balanced,not balanced,0.77,1.35,orthorhombic,-2.151,0.034,-,19.713,3.553,6.303,6.869,9.105,90.0,90.0,90.0,-11.292
TeBeO3,Te,Be,FALSE,not balanced,not balanced,0.77,0.45,cubic,-1.247,0.719,-,8.771,0.000,3.526,3.526,3.526,90.0,90.0,90.0,0.859
TeBiO3,Te,Bi,FALSE,1,5,0.97,0.76,cubic,-0.437,0.931,-,15.991,0.000,4.308,4.308,4.308,90.0,90.0,90.0,-1.840
TeCaO3,Te,Ca,FALSE,not balanced,not balanced,0.77,1.00,cubic,-0.681,1.549,-,14.676,0.000,4.187,4.187,4.187,90.0,90.0,90.0,-8.469
TeCdO3,Te,Cd,FALSE,not balanced,not balanced,0.77,0.95,cubic,-0.091,1.268,-,14.176,0.000,4.138,4.138,4.138,90.0,90.0,90.0,-6.257
TeCeO3,Te,Ce,FALSE,2,4,0.97,0.87,cubic,-1.107,1.313,0.000,19.056,0.000,4.567,4.567,4.567,90.0,90.0,90.0,-7.427
TeCoO3,Te,Co,FALSE,2,4,0.97,0.53,cubic,-0.626,0.652,-0.009,10.514,0.000,3.746,3.746,3.746,90.0,90.0,90.0,1.913
TeCrO3,Te,Cr,FALSE,2,4,0.97,0.55,cubic,-1.264,0.561,0.580,11.610,0.000,3.872,3.872,3.872,90.0,90.0,90.0,2.348
TeCsO3,Te,Cs,FALSE,not balanced,not balanced,0.77,1.67,orthorhombic,-1.388,0.176,-,23.232,0.302,6.235,6.401,11.642,90.0,90.0,90.0,-11.316
TeCuO3,Te,Cu,FALSE,not balanced,not balanced,0.77,0.68,cubic,-0.393,0.709,-,10.840,0.000,3.784,3.784,3.784,90.0,90.0,90.0,-1.402
TeDyO3,Te,Dy,FALSE,not balanced,not balanced,0.77,0.99,cubic,-1.503,1.054,0.000,16.181,0.000,4.325,4.325,4.325,90.0,90.0,90.0,-5.128
TeErO3,Te,Er,FALSE,not balanced,not balanced,0.77,0.89,cubic,-1.576,0.998,0.000,15.675,0.000,4.280,4.280,4.280,90.0,90.0,90.0,-4.578
TeEuO3,Te,Eu,FALSE,not balanced,not balanced,0.77,1.06,orthorhombic,-2.343,-0.162,0.000,15.717,3.278,5.827,6.439,8.377,90.0,90.0,90.0,-9.104
TeFeO3,Te,Fe,FALSE,2,4,0.97,0.59,cubic,-0.808,0.615,0.951,11.754,0.000,3.888,3.888,3.888,90.0,90.0,90.0,-0.992
TeGaO3,Te,Ga,FALSE,not balanced,not balanced,0.77,0.62,cubic,-1.029,0.606,-,11.446,0.000,3.854,3.854,3.854,90.0,90.0,90.0,0.277
TeGdO3,Te,Gd,FALSE,not balanced,not balanced,0.77,0.94,cubic,-1.420,1.126,0.005,16.745,0.000,4.375,4.375,4.375,90.0,90.0,90.0,-5.705
TeGeO3,Te,Ge,FALSE,2,4,0.97,0.53,cubic,-0.851,0.676,-,11.607,0.000,3.872,3.872,3.872,90.0,90.0,90.0,1.866
TeHfO3,Te,Hf,FALSE,2,4,0.97,0.71,cubic,-2.079,0.614,0.000,14.002,0.000,4.122,4.122,4.122,90.0,90.0,90.0,2.379
TeHgO3,Te,Hg,FALSE,not balanced,not balanced,0.77,1.11,orthorhombic,-0.966,0.014,-,15.598,2.147,6.005,6.232,8.336,90.0,90.0,90.0,-6.062
TeHoO3,Te,Ho,FALSE,not balanced,not balanced,0.77,0.90,cubic,-1.541,1.025,0.000,15.929,0.000,4.302,4.302,4.302,90.0,90.0,90.0,-4.832