Chemical formula,A,B,In literature,Valence A,Valence B,Radius A [ang],Radius B [ang],Lowest distortion,Formation energy [eV/atom],Stability [eV/atom],Magnetic moment [mu_B],Volume per atom [A^3/atom],Band gap [eV],a [ang],b [ang],c [ang],alpha [deg],beta [deg],gamma [deg],Vacancy energy [eV/O atom]
SbWO3,Sb,W,FALSE,3,3,0.76,0.66,cubic,-1.317,0.640,-0.002,12.767,0.000,3.997,3.997,3.997,90.0,90.0,90.0,2.948
SbYO3,Sb,Y,FALSE,not balanced,not balanced,0.68,0.90,cubic,-1.759,0.961,0.000,15.899,0.000,4.300,4.300,4.300,90.0,90.0,90.0,-2.971
SbYbO3,Sb,Yb,FALSE,not balanced,not balanced,0.68,0.95,orthorhombic,-2.312,0.091,-,13.852,0.000,5.644,5.893,8.329,90.0,90.0,90.0,-6.014
SbZnO3,Sb,Zn,FALSE,not balanced,not balanced,0.68,0.74,cubic,-0.858,0.797,-,11.389,0.000,3.847,3.847,3.847,90.0,90.0,90.0,-1.530
SbZrO3,Sb,Zr,FALSE,not balanced,not balanced,0.68,0.72,cubic,-2.144,0.562,0.000,14.421,0.000,4.162,4.162,4.162,90.0,90.0,90.0,3.283
ScAcO3,Sc,Ac,FALSE,element not in BV,element not in BV,0.87,1.12,orthorhombic,-3.507,0.255,0.000,16.091,3.507,5.962,6.047,8.927,90.0,90.0,90.0,-6.533
ScAgO3,Sc,Ag,FALSE,not balanced,not balanced,0.87,0.95,orthorhombic,-1.822,0.194,0.000,11.508,0.000,5.176,5.516,8.060,90.0,90.0,90.0,-1.495
ScAlO3,Sc,Al,TRUE,3,3,0.87,0.54,orthorhombic,-3.508,0.028,0.000,9.322,5.018,4.939,5.230,7.218,90.0,90.0,90.0,5.068
ScAsO3,Sc,As,FALSE,3,3,0.87,0.58,cubic,-1.591,1.035,0.120,11.845,0.000,3.898,3.898,3.898,90.0,90.0,90.0,1.189
ScAuO3,Sc,Au,FALSE,element not in BV,element not in BV,0.87,0.93,cubic,-0.857,1.187,0.006,13.274,0.000,4.049,4.049,4.049,90.0,90.0,90.0,-1.476
ScBO3,Sc,B,FALSE,3,3,0.87,0.27,cubic,-2.326,0.947,0.000,7.496,2.021,3.347,3.347,3.347,90.0,90.0,90.0,4.771
ScBaO3,Sc,Ba,FALSE,not balanced,not balanced,0.87,1.35,orthorhombic,-2.818,0.292,0.002,17.299,0.000,6.038,6.550,8.748,90.0,90.0,90.0,-9.719
ScBeO3,Sc,Be,FALSE,not balanced,not balanced,0.87,0.45,cubic,-2.449,0.641,-0.013,8.114,0.000,3.436,3.436,3.436,90.0,90.0,90.0,-2.106
ScBiO3,Sc,Bi,FALSE,1,5,0.87,0.76,cubic,-1.237,1.404,0.159,16.035,0.000,4.312,4.312,4.312,90.0,90.0,90.0,0.324
ScCaO3,Sc,Ca,FALSE,not balanced,not balanced,0.87,1.00,rhombohedral,-2.734,0.466,0.200,13.832,0.000,5.930,5.930,5.930,57.3,57.3,57.3,-
ScCdO3,Sc,Cd,FALSE,not balanced,not balanced,0.87,0.95,cubic,-1.130,1.277,0.000,13.412,0.000,4.063,4.063,4.063,90.0,90.0,90.0,-2.931
ScCeO3,Sc,Ce,FALSE,not balanced,not balanced,0.87,0.94,orthorhombic,-3.448,0.254,0.000,14.934,3.552,5.850,5.951,8.579,90.0,90.0,90.0,-5.624
ScCoO3,Sc,Co,FALSE,3,3,0.87,0.61,cubic,-1.940,0.591,0.000,9.546,0.849,3.627,3.627,3.627,90.0,90.0,90.0,1.089
ScCrO3,Sc,Cr,FALSE,1,5,0.87,0.49,cubic,-2.486,0.658,0.600,10.702,0.436,3.768,3.768,3.768,90.0,90.0,90.0,2.781
ScCsO3,Sc,Cs,FALSE,not balanced,not balanced,0.87,1.67,tetragonal,-1.630,0.837,-0.017,16.029,0.000,3.465,3.465,6.674,90.0,90.0,90.0,-
ScCuO3,Sc,Cu,FALSE,3,3,0.87,0.54,cubic,-1.671,0.566,-0.001,9.858,0.000,3.667,3.667,3.667,90.0,90.0,90.0,-0.392
ScDyO3,Sc,Dy,FALSE,not balanced,not balanced,0.87,0.99,cubic,-2.451,1.378,0.000,15.377,0.464,4.252,4.252,4.252,90.0,90.0,90.0,-2.252
ScErO3,Sc,Er,FALSE,not balanced,not balanced,0.87,0.89,cubic,-2.549,1.303,0.000,14.845,0.690,4.203,4.203,4.203,90.0,90.0,90.0,-1.591
ScEuO3,Sc,Eu,FALSE,not balanced,not balanced,0.87,1.06,orthorhombic,-3.099,0.169,0.200,14.227,0.641,5.822,6.059,8.066,90.0,90.0,90.0,-5.376
ScFeO3,Sc,Fe,FALSE,not balanced,not balanced,0.87,0.67,cubic,-2.035,0.694,0.941,10.773,0.000,3.777,3.777,3.777,90.0,90.0,90.0,1.505
ScGaO3,Sc,Ga,FALSE,not balanced,not balanced,0.87,0.62,cubic,-2.283,0.672,0.000,10.576,1.582,3.753,3.753,3.753,90.0,90.0,90.0,3.320
ScGdO3,Sc,Gd,FALSE,not balanced,not balanced,0.87,0.94,cubic,-2.339,1.461,0.000,15.967,0.448,4.306,4.306,4.306,90.0,90.0,90.0,-2.876
ScGeO3,Sc,Ge,FALSE,not balanced,not balanced,0.87,0.63,cubic,-1.995,0.758,0.089,10.646,0.000,3.762,3.762,3.762,90.0,90.0,90.0,2.523
ScHfO3,Sc,Hf,FALSE,not balanced,not balanced,0.87,0.71,cubic,-2.968,0.663,0.198,13.277,0.000,4.049,4.049,4.049,90.0,90.0,90.0,4.672
ScHgO3,Sc,Hg,FALSE,not balanced,not balanced,0.87,1.11,cubic,-0.725,1.361,0.017,14.268,0.000,4.147,4.147,4.147,90.0,90.0,90.0,-3.250
ScHoO3,Sc,Ho,FALSE,not balanced,not balanced,0.87,0.90,cubic,-2.501,1.343,0.000,15.091,0.687,4.226,4.226,4.226,90.0,90.0,90.0,-1.919
ScInO3,Sc,In,FALSE,not balanced,not balanced,0.87,0.80,orthorhombic,-2.677,0.149,0.000,11.990,3.175,5.317,5.581,8.082,90.0,90.0,90.0,0.677
ScIrO3,Sc,Ir,FALSE,1,5,0.87,0.57,cubic,-1.303,1.080,0.000,11.895,0.000,3.903,3.903,3.903,90.0,90.0,90.0,-1.398
ScKO3,Sc,K,FALSE,not balanced,not balanced,0.87,1.38,orthorhombic,-2.157,0.336,0.000,15.147,1.677,5.705,5.823,9.120,90.0,90.0,90.0,-
ScLaO3,Sc,La,FALSE,not balanced,not balanced,0.87,1.03,orthorhombic,-3.557,0.232,0.000,14.829,4.122,5.817,5.923,8.607,90.0,90.0,90.0,-5.546
ScLiO3,Sc,Li,FALSE,not balanced,not balanced,0.87,0.76,cubic,-1.735,0.868,0.401,8.776,0.000,3.527,3.527,3.527,90.0,90.0,90.0,-2.605
ScLuO3,Sc,Lu,FALSE,not balanced,not balanced,0.87,0.86,cubic,-2.692,1.193,0.000,14.111,0.696,4.132,4.132,4.132,90.0,90.0,90.0,-0.613
ScMgO3,Sc,Mg,FALSE,not balanced,not balanced,0.87,0.72,cubic,-2.182,0.909,0.002,10.538,0.000,3.749,3.749,3.749,90.0,90.0,90.0,-2.950
ScMnO3,Sc,Mn,FALSE,not balanced,not balanced,0.87,0.62,cubic,-2.257,0.655,0.766,10.681,0.000,3.766,3.766,3.766,90.0,90.0,90.0,1.813
ScMoO3,Sc,Mo,FALSE,1,5,0.87,0.61,cubic,-2.047,0.826,0.170,11.995,0.000,3.914,3.914,3.914,90.0,90.0,90.0,1.521
ScNaO3,Sc,Na,FALSE,not balanced,not balanced,0.87,1.02,orthorhombic,-2.072,0.417,0.400,12.796,0.000,5.481,5.484,8.515,90.0,90.0,90.0,-4.175
ScNbO3,Sc,Nb,FALSE,1,5,0.87,0.64,cubic,-2.405,0.753,0.161,12.750,0.000,3.995,3.995,3.995,90.0,90.0,90.0,3.214
ScNdO3,Sc,Nd,FALSE,not balanced,not balanced,0.87,0.98,orthorhombic,-3.506,0.230,0.000,14.353,3.620,5.768,5.890,8.450,90.0,90.0,90.0,-4.700
ScNiO3,Sc,Ni,FALSE,3,3,0.87,0.60,cubic,-1.827,0.573,0.200,9.674,0.000,3.644,3.644,3.644,90.0,90.0,90.0,0.130
ScNpO3,Sc,Np,FALSE,element not in BV,element not in BV,0.87,0.86,orthorhombic,-3.479,0.234,0.800,14.522,1.833,5.815,5.882,8.490,90.0,90.0,90.0,2.058
ScOsO3,Sc,Os,FALSE,element not in BV,element not in BV,0.87,0.57,cubic,-1.404,1.022,0.128,11.792,0.000,3.892,3.892,3.892,90.0,90.0,90.0,-0.311
ScPaO3,Sc,Pa,FALSE,element not in BV,element not in BV,0.87,0.91,cubic,-2.219,1.079,0.370,16.724,0.000,4.373,4.373,4.373,90.0,90.0,90.0,3.280
ScPbO3,Sc,Pb,FALSE,not balanced,not balanced,0.87,0.99,orthorhombic,-2.256,0.265,0.001,13.876,0.000,5.724,5.876,8.252,90.0,90.0,90.0,0.460
ScPdO3,Sc,Pd,FALSE,not balanced,not balanced,0.87,0.75,cubic,-1.291,0.872,0.000,11.960,0.000,3.911,3.911,3.911,90.0,90.0,90.0,-1.005
ScPmO3,Sc,Pm,FALSE,element not in BV,element not in BV,0.87,0.97,cubic,-2.139,1.616,-0.001,17.037,0.000,4.400,4.400,4.400,90.0,90.0,90.0,-4.218
ScPrO3,Sc,Pr,FALSE,not balanced,not balanced,0.87,0.92,orthorhombic,-3.479,0.242,0.000,14.625,3.617,5.806,5.921,8.508,90.0,90.0,90.0,-5.149
ScPtO3,Sc,Pt,FALSE,element not in BV,element not in BV,0.87,0.67,cubic,-1.156,1.096,0.002,12.456,0.000,3.964,3.964,3.964,90.0,90.0,90.0,-1.253
ScPuO3,Sc,Pu,FALSE,element not in BV,element not in BV,0.87,0.83,cubic,-2.434,1.310,0.998,16.282,0.000,4.334,4.334,4.334,90.0,90.0,90.0,-1.120
ScRbO3,Sc,Rb,FALSE,not balanced,not balanced,0.87,1.52,orthorhombic,-2.175,0.297,0.000,16.645,2.450,6.447,6.943,7.438,90.0,90.0,90.0,-12.193
ScReO3,Sc,Re,FALSE,1,5,0.87,0.58,cubic,-1.683,0.989,0.205,11.894,0.000,3.903,3.903,3.903,90.0,90.0,90.0,0.038
ScRhO3,Sc,Rh,FALSE,not balanced,not balanced,0.87,0.61,cubic,-1.465,0.905,0.000,11.596,0.000,3.870,3.870,3.870,90.0,90.0,90.0,-0.954
ScRuO3,Sc,Ru,FALSE,1,5,0.87,0.57,cubic,-1.563,0.911,0.161,11.575,0.000,3.868,3.868,3.868,90.0,90.0,90.0,-0.061
ScSbO3,Sc,Sb,FALSE,1,5,0.87,0.60,cubic,-1.515,1.178,0.200,13.968,0.000,4.118,4.118,4.118,90.0,90.0,90.0,1.271
Sc2O3,Sc,Sc,FALSE,not balanced,not balanced,0.87,0.75,cubic,-2.870,0.938,0.000,12.365,1.319,3.954,3.954,3.954,90.0,90.0,90.0,1.199
ScSiO3,Sc,Si,FALSE,2,4,0.87,0.40,cubic,-2.601,0.708,0.071,8.923,0.000,3.547,3.547,3.547,90.0,90.0,90.0,4.692
ScSmO3,Sc,Sm,FALSE,not balanced,not balanced,0.87,0.96,orthorhombic,-3.556,0.204,0.000,13.929,4.072,5.706,5.840,8.360,90.0,90.0,90.0,-3.864
ScSnO3,Sc,Sn,FALSE,not balanced,not balanced,0.87,0.69,cubic,-1.817,0.980,0.177,13.074,0.000,4.028,4.028,4.028,90.0,90.0,90.0,2.168
ScSrO3,Sc,Sr,FALSE,not balanced,not balanced,0.87,1.18,orthorhombic,-2.920,0.220,0.200,15.246,0.827,5.918,6.204,8.305,90.0,90.0,90.0,-6.833
ScTaO3,Sc,Ta,FALSE,1,5,0.87,0.64,cubic,-2.534,0.728,0.197,12.534,0.000,3.972,3.972,3.972,90.0,90.0,90.0,3.492
ScTbO3,Sc,Tb,FALSE,not balanced,not balanced,0.87,0.84,cubic,-2.266,1.418,0.000,15.670,0.463,4.279,4.279,4.279,90.0,90.0,90.0,-2.611
ScTcO3,Sc,Tc,FALSE,element not in BV,element not in BV,0.87,0.60,cubic,-1.791,0.878,0.345,11.731,0.000,3.885,3.885,3.885,90.0,90.0,90.0,0.589
ScTeO3,Sc,Te,FALSE,not balanced,not balanced,0.87,0.77,cubic,-1.235,1.263,0.190,14.677,0.000,4.187,4.187,4.187,90.0,90.0,90.0,1.338
ScThO3,Sc,Th,FALSE,not balanced,not balanced,0.87,0.94,cubic,-2.609,1.202,0.196,18.720,0.000,4.540,4.540,4.540,90.0,90.0,90.0,2.966
ScTiO3,Sc,Ti,FALSE,not balanced,not balanced,0.87,0.71,cubic,-2.894,0.570,0.010,11.233,0.000,3.830,3.830,3.830,90.0,90.0,90.0,3.687
ScTlO3,Sc,Tl,FALSE,not balanced,not balanced,0.87,1.20,orthorhombic,-2.175,0.197,0.000,13.138,1.462,5.517,5.734,8.307,90.0,90.0,90.0,-3.495
ScTmO3,Sc,Tm,FALSE,not balanced,not balanced,0.87,0.96,cubic,-2.610,1.260,0.000,14.569,0.690,4.176,4.176,4.176,90.0,90.0,90.0,-1.199
ScUO3,Sc,U,FALSE,1,5,0.87,0.76,cubic,-2.480,1.142,0.579,16.403,0.000,4.345,4.345,4.345,90.0,90.0,90.0,3.072
ScVO3,Sc,V,FALSE,1,5,0.87,0.54,cubic,-2.506,0.713,0.401,10.816,0.000,3.782,3.782,3.782,90.0,90.0,90.0,2.974
ScWO3,Sc,W,FALSE,1,5,0.87,0.62,cubic,-2.028,0.855,0.190,12.084,0.000,3.924,3.924,3.924,90.0,90.0,90.0,1.420
ScYO3,Sc,Y,FALSE,not balanced,not balanced,0.87,0.90,cubic,-2.427,1.381,0.000,15.373,0.665,4.252,4.252,4.252,90.0,90.0,90.0,-2.179
ScYbO3,Sc,Yb,FALSE,not balanced,not balanced,0.87,0.95,orthorhombic,-3.130,0.177,0.200,13.152,1.054,5.688,5.817,7.949,90.0,90.0,90.0,-3.326
ScZnO3,Sc,Zn,FALSE,not balanced,not balanced,0.87,0.74,cubic,-1.740,0.823,0.000,10.587,0.000,3.755,3.755,3.755,90.0,90.0,90.0,-1.353
ScZrO3,Sc,Zr,FALSE,not balanced,not balanced,0.87,0.72,cubic,-2.773,0.775,0.191,13.843,0.000,4.106,4.106,4.106,90.0,90.0,90.0,4.047
SiAcO3,Si,Ac,FALSE,element not in BV,element not in BV,0.40,1.12,cubic,-1.067,2.106,0.018,19.279,0.000,4.585,4.585,4.585,90.0,90.0,90.0,-5.849
SiAgO3,Si,Ag,FALSE,not balanced,not balanced,0.40,0.95,cubic,0.210,2.160,-,12.553,0.000,3.974,3.974,3.974,90.0,90.0,90.0,-7.077
SiAlO3,Si,Al,FALSE,not balanced,not balanced,0.40,0.54,cubic,-1.619,1.405,-,9.633,0.000,3.638,3.638,3.638,90.0,90.0,90.0,-0.246
SiAsO3,Si,As,FALSE,not balanced,not balanced,0.40,0.52,cubic,-0.716,1.610,-,11.371,0.000,3.845,3.845,3.845,90.0,90.0,90.0,1.419
SiAuO3,Si,Au,FALSE,element not in BV,element not in BV,0.40,0.93,cubic,0.178,2.116,-,13.019,0.000,4.023,4.023,4.023,90.0,90.0,90.0,-1.164
SiBO3,Si,B,FALSE,3,3,0.40,0.27,cubic,-0.825,1.906,-,7.213,0.000,3.304,3.304,3.304,90.0,90.0,90.0,0.506
SiBaO3,Si,Ba,FALSE,not balanced,not balanced,0.40,1.35,cubic,-0.088,3.116,-,19.171,0.000,4.577,4.577,4.577,90.0,90.0,90.0,-7.572
SiBeO3,Si,Be,FALSE,not balanced,not balanced,0.40,0.45,cubic,-0.972,2.065,-,7.735,0.000,3.382,3.382,3.382,90.0,90.0,90.0,-6.156
SiBiO3,Si,Bi,FALSE,not balanced,not balanced,0.40,0.90,cubic,-0.475,1.897,-,15.271,0.000,4.242,4.242,4.242,90.0,90.0,90.0,0.404
SiCaO3,Si,Ca,FALSE,not balanced,not balanced,0.40,1.00,orthorhombic,-3.108,0.184,-,12.268,4.126,4.921,5.143,9.694,90.0,90.0,90.0,-9.925
SiCdO3,Si,Cd,FALSE,not balanced,not balanced,0.40,0.95,cubic,0.064,2.443,-,13.485,0.000,4.070,4.070,4.070,90.0,90.0,90.0,-7.671
SiCeO3,Si,Ce,FALSE,not balanced,not balanced,0.40,0.94,cubic,-1.026,2.118,-0.007,18.125,0.000,4.492,4.492,4.492,90.0,90.0,90.0,-6.727
SiCoO3,Si,Co,FALSE,2,4,0.40,0.53,cubic,-0.536,1.832,0.356,9.846,0.000,3.665,3.665,3.665,90.0,90.0,90.0,-1.423
SiCrO3,Si,Cr,FALSE,2,4,0.40,0.55,cubic,-1.231,1.486,0.400,10.623,0.000,3.759,3.759,3.759,90.0,90.0,90.0,-0.629
SiCsO3,Si,Cs,FALSE,not balanced,not balanced,0.40,1.67,cubic,0.722,3.207,-,17.631,0.000,4.451,4.451,4.451,90.0,90.0,90.0,-2.713
SiCuO3,Si,Cu,FALSE,not balanced,not balanced,0.40,0.68,cubic,-0.229,1.937,-,9.908,0.000,3.673,3.673,3.673,90.0,90.0,90.0,-5.054
SiDyO3,Si,Dy,FALSE,not balanced,not balanced,0.40,0.99,cubic,-1.358,1.950,0.002,15.561,0.000,4.269,4.269,4.269,90.0,90.0,90.0,-5.843
SiErO3,Si,Er,FALSE,not balanced,not balanced,0.40,0.89,cubic,-1.435,1.971,-0.200,15.194,0.000,4.235,4.235,4.235,90.0,90.0,90.0,-5.408
SiEuO3,Si,Eu,FALSE,not balanced,not balanced,0.40,1.06,orthorhombic,-3.284,-0.081,0.000,11.892,3.915,4.560,5.029,10.372,90.0,90.0,90.0,-9.213
SiFeO3,Si,Fe,FALSE,2,4,0.40,0.59,cubic,-0.833,1.668,0.804,10.552,0.000,3.751,3.751,3.751,90.0,90.0,90.0,-1.814
SiGaO3,Si,Ga,FALSE,not balanced,not balanced,0.40,0.62,cubic,-0.846,1.698,-,10.938,0.000,3.796,3.796,3.796,90.0,90.0,90.0,-2.393
SiGdO3,Si,Gd,FALSE,not balanced,not balanced,0.40,0.94,cubic,-1.291,2.056,0.010,15.968,0.000,4.306,4.306,4.306,90.0,90.0,90.0,-6.113
SiGeO3,Si,Ge,FALSE,2,4,0.40,0.53,cubic,-1.121,1.290,-,10.332,1.221,3.724,3.724,3.724,90.0,90.0,90.0,3.399
SiHfO3,Si,Hf,FALSE,not balanced,not balanced,0.40,0.71,cubic,-2.188,1.049,0.000,13.369,1.454,4.058,4.058,4.058,90.0,90.0,90.0,4.313
SiHgO3,Si,Hg,FALSE,not balanced,not balanced,0.40,1.11,cubic,0.311,2.337,-,13.921,0.000,4.114,4.114,4.114,90.0,90.0,90.0,-7.102
SiHoO3,Si,Ho,FALSE,not balanced,not balanced,0.40,0.90,cubic,-1.406,1.962,0.200,15.342,0.000,4.249,4.249,4.249,90.0,90.0,90.0,-5.536
SiInO3,Si,In,FALSE,not balanced,not balanced,0.40,0.80,cubic,-0.487,1.972,-,13.705,0.000,4.092,4.092,4.092,90.0,90.0,90.0,-4.537
SiIrO3,Si,Ir,FALSE,2,4,0.40,0.63,cubic,-0.350,1.813,0.007,11.865,0.000,3.900,3.900,3.900,90.0,90.0,90.0,0.304
SiKO3,Si,K,FALSE,not balanced,not balanced,0.40,1.38,cubic,0.953,3.438,-,14.850,0.000,4.203,4.203,4.203,90.0,90.0,90.0,-14.070
SiLaO3,Si,La,FALSE,not balanced,not balanced,0.40,1.03,cubic,-1.177,2.169,-0.149,17.650,0.000,4.452,4.452,4.452,90.0,90.0,90.0,-6.082
SiLiO3,Si,Li,FALSE,not balanced,not balanced,0.40,0.76,cubic,-0.177,2.401,-,8.381,0.000,3.473,3.473,3.473,90.0,90.0,90.0,-9.387
SiLuO3,Si,Lu,FALSE,not balanced,not balanced,0.40,0.86,cubic,-1.524,1.905,-0.195,14.597,0.000,4.179,4.179,4.179,90.0,90.0,90.0,-4.928
SiMgO3,Si,Mg,FALSE,not balanced,not balanced,0.40,0.72,cubic,-0.738,2.340,-,10.873,0.000,3.788,3.788,3.788,90.0,90.0,90.0,-7.280
SiMnO3,Si,Mn,FALSE,2,4,0.40,0.53,cubic,-1.040,1.674,0.602,10.455,0.000,3.739,3.739,3.739,90.0,90.0,90.0,-1.849
SiMoO3,Si,Mo,FALSE,2,4,0.40,0.65,cubic,-1.243,1.248,0.001,12.067,0.000,3.922,3.922,3.922,90.0,90.0,90.0,3.585
SiNaO3,Si,Na,FALSE,not balanced,not balanced,0.40,1.02,orthorhombic,-2.283,0.226,-,11.325,0.583,4.918,5.456,8.442,90.0,90.0,90.0,-14.205
SiNbO3,Si,Nb,FALSE,not balanced,not balanced,0.40,0.68,cubic,-1.654,1.052,0.001,12.850,0.000,4.005,4.005,4.005,90.0,90.0,90.0,4.173
SiNdO3,Si,Nd,FALSE,not balanced,not balanced,0.40,0.98,cubic,-1.131,2.162,-0.144,17.240,0.000,4.417,4.417,4.417,90.0,90.0,90.0,-6.481
SiNiO3,Si,Ni,FALSE,2,4,0.40,0.48,cubic,-0.370,1.994,0.157,9.641,0.000,3.639,3.639,3.639,90.0,90.0,90.0,-4.359
SiNpO3,Si,Np,FALSE,element not in BV,element not in BV,0.40,0.86,cubic,-1.659,1.489,0.569,16.033,0.000,4.312,4.312,4.312,90.0,90.0,90.0,1.255
SiOsO3,Si,Os,FALSE,element not in BV,element not in BV,0.40,0.57,cubic,-0.537,1.656,0.200,11.800,0.000,3.893,3.893,3.893,90.0,90.0,90.0,1.390
SiPaO3,Si,Pa,FALSE,element not in BV,element not in BV,0.40,0.91,cubic,-1.799,1.022,0.006,16.608,0.000,4.363,4.363,4.363,90.0,90.0,90.0,3.342
SiPbO3,Si,Pb,FALSE,2,4,0.40,0.78,cubic,-0.367,2.036,-,14.624,0.000,4.182,4.182,4.182,90.0,90.0,90.0,-3.953
SiPdO3,Si,Pd,FALSE,2,4,0.40,0.62,cubic,-0.132,1.972,-,11.917,0.000,3.906,3.906,3.906,90.0,90.0,90.0,-1.586
SiPmO3,Si,Pm,FALSE,element not in BV,element not in BV,0.40,0.97,cubic,-1.176,2.045,0.000,16.774,0.000,4.377,4.377,4.377,90.0,90.0,90.0,-6.429
SiPrO3,Si,Pr,FALSE,not balanced,not balanced,0.40,0.92,cubic,-1.084,2.087,-0.133,17.594,0.000,4.447,4.447,4.447,90.0,90.0,90.0,-6.586
SiPtO3,Si,Pt,FALSE,element not in BV,element not in BV,0.40,0.67,cubic,-0.143,1.938,0.001,12.257,0.000,3.943,3.943,3.943,90.0,90.0,90.0,-0.686
SiPuO3,Si,Pu,FALSE,element not in BV,element not in BV,0.40,0.83,cubic,-1.702,1.498,0.799,16.238,0.000,4.330,4.330,4.330,90.0,90.0,90.0,2.643
SiRbO3,Si,Rb,FALSE,not balanced,not balanced,0.40,1.52,cubic,0.933,3.416,-,15.411,0.000,4.255,4.255,4.255,90.0,90.0,90.0,-16.921
SiReO3,Si,Re,FALSE,not balanced,not balanced,0.40,0.57,cubic,-0.889,1.468,0.000,11.886,0.000,3.902,3.902,3.902,90.0,90.0,90.0,1.991
SiRhO3,Si,Rh,FALSE,2,4,0.40,0.60,cubic,-0.390,1.765,0.012,11.664,0.000,3.878,3.878,3.878,90.0,90.0,90.0,0.272
SiRuO3,Si,Ru,FALSE,2,4,0.40,0.62,cubic,-0.598,1.626,0.307,11.668,0.000,3.878,3.878,3.878,90.0,90.0,90.0,1.553
SiSbO3,Si,Sb,FALSE,2,4,0.40,0.68,cubic,-0.814,1.556,-,13.242,0.000,4.046,4.046,4.046,90.0,90.0,90.0,2.040
SiScO3,Si,Sc,FALSE,not balanced,not balanced,0.40,0.75,cubic,-1.573,1.736,0.003,13.057,0.000,4.027,4.027,4.027,90.0,90.0,90.0,-4.334
Si2O3,Si,Si,FALSE,not balanced,not balanced,0.40,0.40,cubic,-1.763,1.003,-,8.977,1.921,3.554,3.554,3.554,90.0,90.0,90.0,5.683
SiSmO3,Si,Sm,FALSE,not balanced,not balanced,0.40,0.96,cubic,-1.203,2.031,0.000,16.532,0.000,4.356,4.356,4.356,90.0,90.0,90.0,-6.368
SiSnO3,Si,Sn,FALSE,2,4,0.40,0.69,cubic,-1.023,1.436,-,12.901,1.755,4.010,4.010,4.010,90.0,90.0,90.0,2.712
SiSrO3,Si,Sr,FALSE,not balanced,not balanced,0.40,1.18,cubic,-0.202,3.075,-,16.907,0.000,4.389,4.389,4.389,90.0,90.0,90.0,-10.947
SiTaO3,Si,Ta,FALSE,not balanced,not balanced,0.40,0.68,cubic,-1.842,0.937,0.001,12.639,0.000,3.983,3.983,3.983,90.0,90.0,90.0,4.520
SiTbO3,Si,Tb,FALSE,not balanced,not balanced,0.40,0.84,cubic,-1.193,1.970,0.009,15.745,0.000,4.286,4.286,4.286,90.0,90.0,90.0,-5.984
SiTcO3,Si,Tc,FALSE,element not in BV,element not in BV,0.40,0.60,cubic,-0.907,1.447,0.004,11.744,0.000,3.887,3.887,3.887,90.0,90.0,90.0,2.295
SiTeO3,Si,Te,FALSE,2,4,0.40,0.97,cubic,-0.499,1.736,-,14.234,0.000,4.144,4.144,4.144,90.0,90.0,90.0,1.304
SiThO3,Si,Th,FALSE,not balanced,not balanced,0.40,0.94,cubic,-1.914,1.568,0.000,18.723,0.000,4.541,4.541,4.541,90.0,90.0,90.0,1.893
SiTiO3,Si,Ti,FALSE,not balanced,not balanced,0.40,0.71,cubic,-1.964,1.000,0.000,11.403,1.725,3.849,3.849,3.849,90.0,90.0,90.0,1.685
SiTlO3,Si,Tl,FALSE,not balanced,not balanced,0.40,1.20,cubic,0.036,2.226,-,14.425,0.000,4.163,4.163,4.163,90.0,90.0,90.0,-6.045
SiTmO3,Si,Tm,FALSE,not balanced,not balanced,0.40,0.96,cubic,-1.474,1.911,0.210,14.951,0.000,4.213,4.213,4.213,90.0,90.0,90.0,-5.220
SiUO3,Si,U,FALSE,not balanced,not balanced,0.40,0.85,cubic,-1.992,1.230,0.077,16.028,0.000,4.311,4.311,4.311,90.0,90.0,90.0,3.510
SiVO3,Si,V,FALSE,2,4,0.40,0.58,cubic,-1.492,1.282,0.200,10.835,0.000,3.784,3.784,3.784,90.0,90.0,90.0,0.215
SiWO3,Si,W,FALSE,2,4,0.40,0.66,cubic,-1.299,1.198,0.001,12.122,0.000,3.928,3.928,3.928,90.0,90.0,90.0,3.555
SiYO3,Si,Y,FALSE,not balanced,not balanced,0.40,0.90,cubic,-1.338,2.022,0.210,15.758,0.000,4.287,4.287,4.287,90.0,90.0,90.0,-5.755
SiYbO3,Si,Yb,FALSE,not balanced,not balanced,0.40,0.95,orthorhombic,-3.223,0.056,-,11.741,3.964,4.872,4.969,9.701,90.0,90.0,90.0,-8.896
SiZnO3,Si,Zn,FALSE,not balanced,not balanced,0.40,0.74,cubic,-0.308,2.215,-,10.826,0.000,3.783,3.783,3.783,90.0,90.0,90.0,-6.175
SiZrO3,Si,Zr,FALSE,not balanced,not balanced,0.40,0.72,cubic,-1.995,1.137,0.000,13.933,1.469,4.115,4.115,4.115,90.0,90.0,90.0,3.899
SmAcO3,Sm,Ac,FALSE,element not in BV,element not in BV,1.24,1.12,cubic,-2.298,1.342,0.000,20.308,0.000,4.665,4.665,4.665,90.0,90.0,90.0,1.391
SmAgO3,Sm,Ag,FALSE,not balanced,not balanced,1.24,0.95,orthorhombic,-1.924,0.039,0.000,13.064,0.000,5.524,6.009,7.871,90.0,90.0,90.0,-0.168