Chemical formula,A,B,In literature,Valence A,Valence B,Radius A [ang],Radius B [ang],Lowest distortion,Formation energy [eV/atom],Stability [eV/atom],Magnetic moment [mu_B],Volume per atom [A^3/atom],Band gap [eV],a [ang],b [ang],c [ang],alpha [deg],beta [deg],gamma [deg],Vacancy energy [eV/O atom]
MgBeO3,Mg,Be,FALSE,not balanced,not balanced,0.89,0.45,cubic,-1.631,0.751,-,8.068,0.000,3.430,3.430,3.430,90.0,90.0,90.0,-3.208
MgBiO3,Mg,Bi,FALSE,not balanced,not balanced,0.89,0.90,cubic,-1.143,0.814,-,15.302,0.000,4.245,4.245,4.245,90.0,90.0,90.0,0.423
MgCaO3,Mg,Ca,FALSE,not balanced,not balanced,0.89,1.00,cubic,-1.140,1.343,-,14.693,0.000,4.188,4.188,4.188,90.0,90.0,90.0,-5.014
MgCdO3,Mg,Cd,FALSE,not balanced,not balanced,0.89,0.95,cubic,-0.643,1.047,-,13.302,0.000,4.052,4.052,4.052,90.0,90.0,90.0,-3.396
MgCeO3,Mg,Ce,FALSE,2,4,0.89,0.87,orthorhombic,-2.711,0.236,0.200,14.417,0.613,5.674,5.946,8.548,90.0,90.0,90.0,-3.540
MgCoO3,Mg,Co,FALSE,2,4,0.89,0.53,cubic,-1.244,0.573,0.294,9.757,0.000,3.654,3.654,3.654,90.0,90.0,90.0,-
MgCrO3,Mg,Cr,FALSE,2,4,0.89,0.55,cubic,-1.937,0.564,0.399,10.386,0.000,3.731,3.731,3.731,90.0,90.0,90.0,0.439
MgCsO3,Mg,Cs,FALSE,not balanced,not balanced,0.89,1.67,cubic,0.051,1.871,-,17.518,0.000,4.441,4.441,4.441,90.0,90.0,90.0,-2.627
MgCuO3,Mg,Cu,FALSE,not balanced,not balanced,0.89,0.68,cubic,-0.976,0.543,-,9.902,0.000,3.672,3.672,3.672,90.0,90.0,90.0,-1.789
MgDyO3,Mg,Dy,FALSE,not balanced,not balanced,0.89,0.99,cubic,-2.039,1.073,0.200,15.418,0.000,4.256,4.256,4.256,90.0,90.0,90.0,-2.681
MgErO3,Mg,Er,FALSE,not balanced,not balanced,0.89,0.89,cubic,-2.104,1.032,0.200,14.993,0.000,4.217,4.217,4.217,90.0,90.0,90.0,-2.566
MgEuO3,Mg,Eu,FALSE,not balanced,not balanced,0.89,1.06,orthorhombic,-2.413,0.141,0.000,12.876,2.525,5.899,6.062,7.202,90.0,90.0,90.0,-4.319
MgFeO3,Mg,Fe,FALSE,2,4,0.89,0.59,orthorhombic,-1.954,0.100,0.799,9.425,0.000,4.977,5.215,7.262,90.0,90.0,90.0,0.070
MgGaO3,Mg,Ga,FALSE,not balanced,not balanced,0.89,0.62,cubic,-1.594,0.673,-,10.830,0.000,3.783,3.783,3.783,90.0,90.0,90.0,-2.133
MgGdO3,Mg,Gd,FALSE,not balanced,not balanced,0.89,0.94,cubic,-1.968,1.115,0.200,15.978,0.000,4.307,4.307,4.307,90.0,90.0,90.0,-2.812
MgGeO3,Mg,Ge,FALSE,2,4,0.89,0.53,cubic,-1.882,0.522,-,10.036,1.576,3.688,3.688,3.688,90.0,90.0,90.0,3.024
MgHfO3,Mg,Hf,FALSE,2,4,0.89,0.71,cubic,-2.878,0.604,0.000,13.227,1.009,4.044,4.044,4.044,90.0,90.0,90.0,3.554
MgHgO3,Mg,Hg,FALSE,not balanced,not balanced,0.89,1.11,cubic,-0.386,0.991,-,13.836,0.000,4.105,4.105,4.105,90.0,90.0,90.0,-2.924
MgHoO3,Mg,Ho,FALSE,not balanced,not balanced,0.89,0.90,cubic,-2.073,1.051,0.200,15.199,0.000,4.236,4.236,4.236,90.0,90.0,90.0,-2.614
MgInO3,Mg,In,FALSE,not balanced,not balanced,0.89,0.80,cubic,-1.187,0.922,-,13.515,0.000,4.073,4.073,4.073,90.0,90.0,90.0,-2.595
MgIrO3,Mg,Ir,FALSE,2,4,0.89,0.63,cubic,-1.017,0.800,0.193,11.844,0.000,3.898,3.898,3.898,90.0,90.0,90.0,-0.164
MgKO3,Mg,K,FALSE,not balanced,not balanced,0.89,1.38,cubic,0.264,2.092,-,14.586,0.000,4.178,4.178,4.178,90.0,90.0,90.0,-4.740
MgLaO3,Mg,La,FALSE,not balanced,not balanced,0.89,1.03,orthorhombic,-2.815,0.229,0.200,14.300,0.655,5.560,5.995,8.580,90.0,90.0,90.0,-3.153
MgLiO3,Mg,Li,FALSE,not balanced,not balanced,0.89,0.76,cubic,-0.861,1.033,-,8.925,0.000,3.547,3.547,3.547,90.0,90.0,90.0,-4.988
MgLuO3,Mg,Lu,FALSE,not balanced,not balanced,0.89,0.86,cubic,-2.202,0.966,0.199,14.420,0.000,4.162,4.162,4.162,90.0,90.0,90.0,-2.382
Mg2O3,Mg,Mg,FALSE,not balanced,not balanced,0.89,0.72,cubic,-1.465,0.909,-,10.992,0.000,3.802,3.802,3.802,90.0,90.0,90.0,-3.239
MgMnO3,Mg,Mn,FALSE,2,4,0.89,0.53,orthorhombic,-2.219,0.077,0.600,9.249,0.705,4.951,5.183,7.208,90.0,90.0,90.0,0.004
MgMoO3,Mg,Mo,FALSE,2,4,0.89,0.65,cubic,-1.924,0.597,0.001,11.972,0.000,3.912,3.912,3.912,90.0,90.0,90.0,3.429
MgNaO3,Mg,Na,FALSE,not balanced,not balanced,0.89,1.02,cubic,-0.208,1.597,-,12.396,0.000,3.957,3.957,3.957,90.0,90.0,90.0,-9.354
MgNbO3,Mg,Nb,FALSE,2,4,0.89,0.68,cubic,-2.323,0.529,0.000,12.767,0.000,3.997,3.997,3.997,90.0,90.0,90.0,4.379
MgNdO3,Mg,Nd,FALSE,not balanced,not balanced,0.89,0.98,orthorhombic,-2.762,0.289,0.200,13.928,0.680,5.633,5.854,8.447,90.0,90.0,90.0,-3.289
MgNiO3,Mg,Ni,FALSE,2,4,0.89,0.48,cubic,-1.102,0.590,0.001,9.771,0.000,3.656,3.656,3.656,90.0,90.0,90.0,-1.539
MgNpO3,Mg,Np,FALSE,element not in BV,element not in BV,0.89,0.86,orthorhombic,-3.180,0.225,0.600,13.121,2.588,5.597,5.647,8.303,90.0,90.0,90.0,1.747
MgOsO3,Mg,Os,FALSE,element not in BV,element not in BV,0.89,0.57,cubic,-1.213,0.662,0.210,11.750,0.000,3.888,3.888,3.888,90.0,90.0,90.0,1.023
MgPaO3,Mg,Pa,FALSE,element not in BV,element not in BV,0.89,0.91,cubic,-2.381,0.657,0.009,16.741,0.000,4.374,4.374,4.374,90.0,90.0,90.0,4.613
MgPbO3,Mg,Pb,FALSE,2,4,0.89,0.78,cubic,-1.047,0.800,-,14.514,0.000,4.171,4.171,4.171,90.0,90.0,90.0,0.440
MgPdO3,Mg,Pd,FALSE,2,4,0.89,0.62,cubic,-0.798,0.658,-,11.828,0.000,3.896,3.896,3.896,90.0,90.0,90.0,-1.351
MgPmO3,Mg,Pm,FALSE,element not in BV,element not in BV,0.89,0.97,orthorhombic,-2.791,0.235,0.201,13.692,0.702,5.610,5.817,8.392,90.0,90.0,90.0,-3.150
MgPrO3,Mg,Pr,FALSE,2,4,0.89,0.85,orthorhombic,-2.739,0.236,0.200,14.145,0.821,5.647,5.893,8.500,90.0,90.0,90.0,-3.347
MgPtO3,Mg,Pt,FALSE,element not in BV,element not in BV,0.89,0.67,cubic,-0.805,0.818,0.060,12.166,0.000,3.933,3.933,3.933,90.0,90.0,90.0,-1.306
MgPuO3,Mg,Pu,FALSE,element not in BV,element not in BV,0.89,0.83,orthorhombic,-3.087,0.061,0.800,12.910,1.564,5.567,5.617,8.258,90.0,90.0,90.0,1.122
MgRbO3,Mg,Rb,FALSE,not balanced,not balanced,0.89,1.52,cubic,0.246,2.061,-,15.380,0.000,4.252,4.252,4.252,90.0,90.0,90.0,-3.974
MgReO3,Mg,Re,FALSE,2,4,0.89,0.63,cubic,-1.558,0.645,0.000,11.844,0.000,3.898,3.898,3.898,90.0,90.0,90.0,1.669
MgRhO3,Mg,Rh,FALSE,2,4,0.89,0.60,cubic,-1.067,0.734,0.260,11.640,0.000,3.875,3.875,3.875,90.0,90.0,90.0,-0.243
MgRuO3,Mg,Ru,FALSE,2,4,0.89,0.62,cubic,-1.290,0.648,0.395,11.615,0.000,3.873,3.873,3.873,90.0,90.0,90.0,1.013
MgSbO3,Mg,Sb,FALSE,2,4,0.89,0.68,cubic,-1.478,0.742,-,13.339,0.000,4.055,4.055,4.055,90.0,90.0,90.0,1.878
MgScO3,Mg,Sc,FALSE,not balanced,not balanced,0.89,0.75,cubic,-2.279,0.812,0.001,12.847,0.000,4.005,4.005,4.005,90.0,90.0,90.0,-2.243
MgSiO3,Mg,Si,FALSE,2,4,0.89,0.40,orthorhombic,-2.869,0.208,-,8.157,5.946,4.783,4.936,6.910,90.0,90.0,90.0,5.267
MgSmO3,Mg,Sm,FALSE,not balanced,not balanced,0.89,0.96,orthorhombic,-2.805,0.232,0.201,13.550,0.726,5.593,5.790,8.368,90.0,90.0,90.0,-3.053
MgSnO3,Mg,Sn,FALSE,2,4,0.89,0.69,cubic,-1.725,0.625,-,12.762,1.143,3.996,3.996,3.996,90.0,90.0,90.0,2.673
MgSrO3,Mg,Sr,FALSE,not balanced,not balanced,0.89,1.18,cubic,-0.864,1.610,-,16.705,0.000,4.371,4.371,4.371,90.0,90.0,90.0,-6.291
MgTaO3,Mg,Ta,FALSE,2,4,0.89,0.68,cubic,-2.490,0.505,0.000,12.580,0.000,3.977,3.977,3.977,90.0,90.0,90.0,4.980
MgTbO3,Mg,Tb,FALSE,2,4,0.89,0.76,cubic,-1.874,1.094,0.200,15.697,0.000,4.282,4.282,4.282,90.0,90.0,90.0,-2.742
MgTcO3,Mg,Tc,FALSE,element not in BV,element not in BV,0.89,0.60,cubic,-1.598,0.600,0.002,11.617,0.000,3.873,3.873,3.873,90.0,90.0,90.0,1.992
MgTeO3,Mg,Te,FALSE,2,4,0.89,0.97,cubic,-1.178,0.833,-,14.315,0.000,4.152,4.152,4.152,90.0,90.0,90.0,1.481
MgThO3,Mg,Th,FALSE,2,4,0.89,0.94,cubic,-2.537,1.184,-0.001,18.682,0.000,4.537,4.537,4.537,90.0,90.0,90.0,2.296
MgTiO3,Mg,Ti,FALSE,2,4,0.89,0.61,orthorhombic,-3.094,0.094,0.000,9.849,2.296,5.044,5.280,7.396,90.0,90.0,90.0,3.878
MgTlO3,Mg,Tl,FALSE,not balanced,not balanced,0.89,1.20,cubic,-0.655,1.001,-,14.323,0.000,4.153,4.153,4.153,90.0,90.0,90.0,-2.748
MgTmO3,Mg,Tm,FALSE,not balanced,not balanced,0.89,0.96,cubic,-2.147,1.006,0.200,14.775,0.000,4.196,4.196,4.196,90.0,90.0,90.0,-2.488
MgUO3,Mg,U,FALSE,2,4,0.89,0.89,orthorhombic,-3.256,0.214,0.400,13.324,2.986,5.635,5.645,8.377,90.0,90.0,90.0,3.749
MgVO3,Mg,V,FALSE,2,4,0.89,0.58,cubic,-2.236,0.501,0.201,10.566,0.000,3.752,3.752,3.752,90.0,90.0,90.0,2.490
MgWO3,Mg,W,FALSE,2,4,0.89,0.66,cubic,-1.951,0.604,0.001,12.082,0.000,3.924,3.924,3.924,90.0,90.0,90.0,3.564
MgYO3,Mg,Y,FALSE,not balanced,not balanced,0.89,0.90,cubic,-2.002,1.090,0.200,15.597,0.000,4.272,4.272,4.272,90.0,90.0,90.0,-2.831
MgYbO3,Mg,Yb,FALSE,not balanced,not balanced,0.89,0.95,cubic,-1.388,1.211,-,13.733,0.000,4.095,4.095,4.095,90.0,90.0,90.0,-4.027
MgZnO3,Mg,Zn,FALSE,not balanced,not balanced,0.89,0.74,cubic,-1.062,0.793,-,10.766,0.000,3.776,3.776,3.776,90.0,90.0,90.0,-2.748
MgZrO3,Mg,Zr,FALSE,2,4,0.89,0.72,cubic,-2.676,0.682,0.000,13.812,0.843,4.103,4.103,4.103,90.0,90.0,90.0,2.605
MnAcO3,Mn,Ac,FALSE,element not in BV,element not in BV,0.96,1.12,orthorhombic,-2.604,0.314,0.800,15.237,0.299,5.902,5.987,8.625,90.0,90.0,90.0,-3.019
MnAgO3,Mn,Ag,FALSE,not balanced,not balanced,0.96,0.95,orthorhombic,-0.968,0.195,0.751,11.336,0.000,4.904,5.237,8.829,90.0,90.0,90.0,-1.753
MnAlO3,Mn,Al,FALSE,3,3,0.65,0.54,orthorhombic,-2.509,0.132,0.800,8.943,0.000,4.793,5.080,7.347,90.0,90.0,90.0,-0.538
MnAsO3,Mn,As,FALSE,3,3,0.65,0.58,orthorhombic,-1.546,0.218,0.982,10.631,0.000,5.204,5.403,7.562,90.0,90.0,90.0,1.474
MnAuO3,Mn,Au,FALSE,element not in BV,element not in BV,0.96,0.93,cubic,-0.323,0.827,0.995,12.912,0.000,4.012,4.012,4.012,90.0,90.0,90.0,-1.445
MnBO3,Mn,B,FALSE,3,3,0.65,0.27,cubic,-1.274,1.047,0.800,7.598,0.000,3.362,3.362,3.362,90.0,90.0,90.0,-1.322
MnBaO3,Mn,Ba,FALSE,not balanced,not balanced,0.96,1.35,orthorhombic,-2.124,0.256,0.600,16.689,0.628,5.643,6.015,9.832,90.0,90.0,90.0,-6.269
MnBeO3,Mn,Be,FALSE,not balanced,not balanced,0.96,0.45,cubic,-1.468,0.769,0.600,8.302,0.000,3.462,3.462,3.462,90.0,90.0,90.0,-2.999
MnBiO3,Mn,Bi,FALSE,1,5,0.96,0.76,orthorhombic,-1.552,0.199,0.897,13.326,0.000,5.652,5.730,8.230,90.0,90.0,90.0,0.414
MnCaO3,Mn,Ca,FALSE,not balanced,not balanced,0.96,1.00,rhombohedral,-2.180,0.263,0.600,13.723,1.528,6.016,6.016,6.016,55.3,55.3,55.3,-
MnCdO3,Mn,Cd,FALSE,not balanced,not balanced,0.96,0.95,orthorhombic,-1.287,0.328,0.600,12.100,0.000,5.332,5.436,8.349,90.0,90.0,90.0,-3.757
MnCeO3,Mn,Ce,FALSE,2,4,0.96,0.87,orthorhombic,-2.529,0.319,0.800,14.238,0.315,5.784,5.808,8.475,90.0,90.0,90.0,-3.480
MnCoO3,Mn,Co,FALSE,2,4,0.96,0.53,cubic,-1.044,0.605,0.688,10.015,0.000,3.686,3.686,3.686,90.0,90.0,90.0,-0.239
MnCrO3,Mn,Cr,FALSE,2,4,0.96,0.55,cubic,-1.739,0.511,1.400,10.557,0.000,3.751,3.751,3.751,90.0,90.0,90.0,0.722
MnCsO3,Mn,Cs,FALSE,not balanced,not balanced,0.96,1.67,-,-,-,-,-,-,-,-,-,-,-,-,-
MnCuO3,Mn,Cu,FALSE,3,3,0.65,0.54,cubic,-0.764,0.628,0.883,10.094,0.000,3.696,3.696,3.696,90.0,90.0,90.0,-1.889
MnDyO3,Mn,Dy,FALSE,not balanced,not balanced,0.96,0.99,cubic,-1.850,1.135,0.960,15.447,0.000,4.259,4.259,4.259,90.0,90.0,90.0,-2.742
MnErO3,Mn,Er,FALSE,not balanced,not balanced,0.96,0.89,cubic,-1.928,1.079,1.195,15.035,0.000,4.220,4.220,4.220,90.0,90.0,90.0,-2.457
MnEuO3,Mn,Eu,FALSE,not balanced,not balanced,0.96,1.06,rhombohedral,-2.303,0.312,0.600,14.615,1.500,6.143,6.143,6.143,55.3,55.3,55.3,-4.666
MnFeO3,Mn,Fe,FALSE,2,4,0.96,0.59,orthorhombic,-1.693,0.140,1.800,9.927,0.000,4.934,5.243,7.676,90.0,90.0,90.0,0.308
MnGaO3,Mn,Ga,FALSE,not balanced,not balanced,0.96,0.62,cubic,-1.405,0.654,0.800,10.942,0.000,3.796,3.796,3.796,90.0,90.0,90.0,-1.675
MnGdO3,Mn,Gd,FALSE,not balanced,not balanced,0.96,0.94,orthorhombic,-2.667,0.279,0.800,12.844,0.346,5.661,5.680,7.989,90.0,90.0,90.0,-2.850
MnGeO3,Mn,Ge,FALSE,2,4,0.96,0.53,orthorhombic,-1.941,0.085,1.000,9.776,1.382,5.090,5.237,7.334,90.0,90.0,90.0,3.174
MnHfO3,Mn,Hf,FALSE,2,4,0.96,0.71,orthorhombic,-3.093,0.026,1.000,11.554,3.348,5.331,5.551,7.809,90.0,90.0,90.0,3.919
MnHgO3,Mn,Hg,FALSE,not balanced,not balanced,0.96,1.11,orthorhombic,-0.939,0.293,0.744,12.283,0.000,5.098,5.361,8.988,90.0,90.0,90.0,-1.970
MnHoO3,Mn,Ho,FALSE,not balanced,not balanced,0.96,0.90,cubic,-1.883,1.113,0.974,15.220,0.000,4.238,4.238,4.238,90.0,90.0,90.0,-2.667
MnInO3,Mn,In,FALSE,not balanced,not balanced,0.96,0.80,cubic,-1.008,0.933,0.898,13.610,0.000,4.083,4.083,4.083,90.0,90.0,90.0,-2.326
MnIrO3,Mn,Ir,FALSE,2,4,0.96,0.63,cubic,-0.830,0.669,1.207,11.909,0.000,3.905,3.905,3.905,90.0,90.0,90.0,0.114
MnKO3,Mn,K,FALSE,not balanced,not balanced,0.96,1.38,orthorhombic,-1.543,0.118,0.400,14.955,0.977,4.945,5.600,10.800,90.0,90.0,90.0,-5.171
MnLaO3,Mn,La,FALSE,not balanced,not balanced,0.96,1.03,orthorhombic,-2.639,0.293,0.800,14.125,0.268,5.791,5.842,8.351,90.0,90.0,90.0,-3.007
MnLiO3,Mn,Li,FALSE,not balanced,not balanced,0.96,0.76,cubic,-0.788,1.036,0.399,9.124,0.000,3.573,3.573,3.573,90.0,90.0,90.0,-4.252
MnLuO3,Mn,Lu,FALSE,not balanced,not balanced,0.96,0.86,cubic,-2.027,1.007,0.799,14.489,0.000,4.169,4.169,4.169,90.0,90.0,90.0,-2.197
MnMgO3,Mn,Mg,FALSE,not balanced,not balanced,0.96,0.72,cubic,-1.349,0.947,0.600,11.130,0.000,3.818,3.818,3.818,90.0,90.0,90.0,-3.251
Mn2O3,Mn,Mn,FALSE,not balanced,not balanced,0.96,0.62,cubic,-1.578,0.439,1.627,10.335,0.000,3.725,3.725,3.725,90.0,90.0,90.0,0.319
MnMoO3,Mn,Mo,FALSE,2,4,0.96,0.65,orthorhombic,-1.971,0.193,1.167,10.964,0.000,5.288,5.430,7.637,90.0,90.0,90.0,3.603
MnNaO3,Mn,Na,FALSE,not balanced,not balanced,0.96,1.02,orthorhombic,-1.473,0.259,0.400,12.273,0.729,5.121,5.153,9.301,90.0,90.0,90.0,-3.164
MnNbO3,Mn,Nb,FALSE,2,4,0.96,0.68,orthorhombic,-2.381,0.127,1.043,11.366,0.000,5.311,5.556,7.705,90.0,90.0,90.0,4.424
MnNdO3,Mn,Nd,FALSE,not balanced,not balanced,0.96,0.98,orthorhombic,-2.579,0.307,0.800,13.679,0.345,5.754,5.799,8.200,90.0,90.0,90.0,-3.216
MnNiO3,Mn,Ni,FALSE,2,4,0.96,0.48,cubic,-0.893,0.703,1.000,9.953,0.000,3.678,3.678,3.678,90.0,90.0,90.0,-1.570
MnNpO3,Mn,Np,FALSE,element not in BV,element not in BV,0.96,0.86,cubic,-2.162,0.879,1.577,16.315,0.000,4.337,4.337,4.337,90.0,90.0,90.0,2.376
MnOsO3,Mn,Os,FALSE,element not in BV,element not in BV,0.96,0.57,cubic,-1.029,0.519,1.224,11.806,0.000,3.894,3.894,3.894,90.0,90.0,90.0,1.279
MnPaO3,Mn,Pa,FALSE,element not in BV,element not in BV,0.96,0.91,rhombohedral,-2.660,0.014,1.200,14.951,1.705,6.063,6.063,6.063,57.8,57.8,57.8,4.966
MnPbO3,Mn,Pb,FALSE,2,4,0.96,0.78,orthorhombic,-1.476,0.150,0.998,12.685,0.000,5.532,5.661,8.101,90.0,90.0,90.0,0.121
MnPdO3,Mn,Pd,FALSE,2,4,0.96,0.62,cubic,-0.613,0.697,0.907,11.927,0.000,3.907,3.907,3.907,90.0,90.0,90.0,-1.086
MnPmO3,Mn,Pm,FALSE,element not in BV,element not in BV,0.96,0.97,orthorhombic,-2.604,0.301,0.800,13.426,0.357,5.688,5.724,8.248,90.0,90.0,90.0,-3.111
MnPrO3,Mn,Pr,FALSE,2,4,0.96,0.85,orthorhombic,-2.555,0.315,0.800,13.935,0.333,5.744,5.779,8.396,90.0,90.0,90.0,-3.338
MnPtO3,Mn,Pt,FALSE,element not in BV,element not in BV,0.96,0.67,cubic,-0.617,0.766,0.944,12.217,0.000,3.938,3.938,3.938,90.0,90.0,90.0,-1.147
MnPuO3,Mn,Pu,FALSE,element not in BV,element not in BV,0.96,0.83,orthorhombic,-2.802,0.086,1.800,13.402,1.643,5.625,5.739,8.303,90.0,90.0,90.0,1.110
MnRbO3,Mn,Rb,FALSE,not balanced,not balanced,0.96,1.52,cubic,0.428,2.166,0.996,15.271,0.000,4.242,4.242,4.242,90.0,90.0,90.0,-3.963
MnReO3,Mn,Re,FALSE,2,4,0.96,0.63,orthorhombic,-1.650,0.190,1.150,10.846,0.000,5.294,5.381,7.614,90.0,90.0,90.0,1.851
MnRhO3,Mn,Rh,FALSE,2,4,0.96,0.60,cubic,-0.875,0.614,1.264,11.726,0.000,3.885,3.885,3.885,90.0,90.0,90.0,0.048
MnRuO3,Mn,Ru,FALSE,2,4,0.96,0.62,orthorhombic,-1.529,0.072,0.605,10.435,0.000,5.218,5.328,7.506,90.0,90.0,90.0,1.401
MnSbO3,Mn,Sb,FALSE,1,5,0.96,0.60,cubic,-1.301,0.554,1.055,13.412,0.000,4.063,4.063,4.063,90.0,90.0,90.0,1.874
MnScO3,Mn,Sc,FALSE,not balanced,not balanced,0.96,0.75,cubic,-2.108,0.805,0.798,12.927,0.000,4.013,4.013,4.013,90.0,90.0,90.0,-1.879
MnSiO3,Mn,Si,FALSE,2,4,0.96,0.40,orthorhombic,-2.487,0.227,1.000,8.709,3.851,4.928,5.026,7.033,90.0,90.0,90.0,5.482
MnSmO3,Mn,Sm,FALSE,not balanced,not balanced,0.96,0.96,orthorhombic,-2.618,0.296,0.800,13.265,0.000,5.669,5.706,8.202,90.0,90.0,90.0,-3.085
MnSnO3,Mn,Sn,FALSE,2,4,0.96,0.69,orthorhombic,-1.984,0.042,1.000,11.639,0.851,5.368,5.544,7.823,90.0,90.0,90.0,2.711
MnSrO3,Mn,Sr,FALSE,not balanced,not balanced,0.96,1.18,orthorhombic,-2.149,0.260,0.600,14.854,0.604,5.631,5.697,9.261,90.0,90.0,90.0,-5.900
MnTaO3,Mn,Ta,FALSE,2,4,0.96,0.68,orthorhombic,-2.490,0.180,0.800,11.181,0.000,5.262,5.590,7.602,90.0,90.0,90.0,4.948
MnTbO3,Mn,Tb,FALSE,2,4,0.96,0.76,orthorhombic,-2.552,0.272,0.800,12.685,0.245,5.646,5.656,7.944,90.0,90.0,90.0,-2.675
MnTcO3,Mn,Tc,FALSE,element not in BV,element not in BV,0.96,0.60,orthorhombic,-1.722,0.113,1.172,10.646,0.000,5.222,5.395,7.557,90.0,90.0,90.0,2.216
MnTeO3,Mn,Te,FALSE,2,4,0.96,0.97,cubic,-1.004,0.681,1.043,14.324,0.000,4.153,4.153,4.153,90.0,90.0,90.0,1.654
MnThO3,Mn,Th,FALSE,2,4,0.96,0.94,cubic,-2.368,0.989,1.008,18.631,0.000,4.533,4.533,4.533,90.0,90.0,90.0,2.387
MnTiO3,Mn,Ti,FALSE,2,4,0.96,0.61,orthorhombic,-2.777,0.060,1.000,10.264,1.398,5.132,5.357,7.467,90.0,90.0,90.0,3.891
MnTlO3,Mn,Tl,FALSE,not balanced,not balanced,0.96,1.20,rhombohedral,-1.381,0.096,0.800,12.794,0.000,6.043,7.236,7.248,55.2,30.0,55.3,-2.514
MnTmO3,Mn,Tm,FALSE,not balanced,not balanced,0.96,0.96,cubic,-1.972,1.052,0.798,14.829,0.000,4.201,4.201,4.201,90.0,90.0,90.0,-2.333
MnUO3,Mn,U,FALSE,2,4,0.96,0.89,cubic,-2.377,0.729,1.278,16.208,0.000,4.327,4.327,4.327,90.0,90.0,90.0,3.612
MnVO3,Mn,V,FALSE,2,4,0.96,0.58,orthorhombic,-2.330,0.052,1.200,10.068,0.000,5.132,5.275,7.438,90.0,90.0,90.0,2.704
MnWO3,Mn,W,FALSE,2,4,0.96,0.66,rhombohedral,-1.946,0.263,0.947,10.985,0.000,5.241,5.241,5.241,63.6,63.6,63.6,3.688
MnYO3,Mn,Y,FALSE,not balanced,not balanced,0.96,0.90,cubic,-1.828,1.132,0.800,15.647,0.000,4.277,4.277,4.277,90.0,90.0,90.0,-2.709
MnYbO3,Mn,Yb,FALSE,not balanced,not balanced,0.96,0.95,rhombohedral,-2.293,0.317,0.600,13.057,1.473,5.875,5.875,5.875,56.1,56.1,56.1,-4.328
MnZnO3,Mn,Zn,FALSE,not balanced,not balanced,0.96,0.74,cubic,-0.867,0.843,0.844,10.931,0.000,3.795,3.795,3.795,90.0,90.0,90.0,-2.793
MnZrO3,Mn,Zr,FALSE,2,4,0.96,0.72,orthorhombic,-2.943,0.052,1.000,11.900,3.057,5.383,5.594,7.903,90.0,90.0,90.0,2.972
MoAcO3,Mo,Ac,FALSE,element not in BV,element not in BV,0.73,1.12,rhombohedral,-2.403,0.356,0.200,16.382,0.000,5.917,5.917,5.917,65.4,65.4,65.4,-8.478
MoAgO3,Mo,Ag,FALSE,3,3,0.69,0.75,orthorhombic,-1.368,0.362,0.002,13.694,0.000,5.563,5.640,8.729,90.0,90.0,90.0,-9.289
MoAlO3,Mo,Al,FALSE,3,3,0.69,0.54,cubic,-1.718,0.884,0.599,9.692,0.000,3.646,3.646,3.646,90.0,90.0,90.0,1.533
MoAsO3,Mo,As,FALSE,3,3,0.69,0.58,cubic,-0.399,1.375,0.793,11.693,0.000,3.881,3.881,3.881,90.0,90.0,90.0,-0.346
MoAuO3,Mo,Au,FALSE,element not in BV,element not in BV,0.73,0.93,cubic,0.418,2.149,0.688,13.289,0.000,4.050,4.050,4.050,90.0,90.0,90.0,-8.504
MoBO3,Mo,B,FALSE,3,3,0.69,0.27,cubic,-0.828,1.453,0.535,7.826,0.000,3.395,3.395,3.395,90.0,90.0,90.0,1.516
MoBaO3,Mo,Ba,FALSE,4,2,0.65,1.35,rhombohedral,-2.311,0.278,0.000,18.697,0.788,6.254,6.254,6.254,63.7,63.7,63.7,-14.618
MoBeO3,Mo,Be,FALSE,4,2,0.65,0.45,cubic,-1.384,1.096,0.349,7.928,0.000,3.410,3.410,3.410,90.0,90.0,90.0,-0.936
MoBiO3,Mo,Bi,FALSE,3,3,0.69,1.03,cubic,-0.179,1.633,0.863,15.295,0.000,4.245,4.245,4.245,90.0,90.0,90.0,-6.762
MoCaO3,Mo,Ca,FALSE,4,2,0.65,1.00,orthorhombic,-2.310,0.344,0.399,13.220,0.000,5.553,5.802,8.206,90.0,90.0,90.0,-10.717
MoCdO3,Mo,Cd,FALSE,4,2,0.65,0.95,orthorhombic,-1.430,0.393,0.400,12.721,0.000,5.578,5.698,8.005,90.0,90.0,90.0,-9.669
MoCeO3,Mo,Ce,FALSE,3,3,0.69,1.01,rhombohedral,-2.319,0.441,0.200,15.288,0.000,5.754,5.754,5.754,66.2,66.2,66.2,-8.761
MoCoO3,Mo,Co,FALSE,3,3,0.69,0.61,cubic,-0.555,1.258,0.590,9.791,0.000,3.658,3.658,3.658,90.0,90.0,90.0,-0.950
MoCrO3,Mo,Cr,FALSE,3,3,0.69,0.62,cubic,-1.128,1.082,1.200,10.906,0.000,3.792,3.792,3.792,90.0,90.0,90.0,-0.144
MoCsO3,Mo,Cs,FALSE,not balanced,not balanced,0.73,1.67,orthorhombic,-2.114,0.066,0.020,20.730,0.000,5.560,6.549,11.387,90.0,90.0,90.0,-
MoCuO3,Mo,Cu,FALSE,3,3,0.69,0.54,orthorhombic,-1.422,0.312,0.186,10.635,0.000,5.221,5.254,7.754,90.0,90.0,90.0,-3.836
MoDyO3,Mo,Dy,FALSE,4,2,0.65,1.07,cubic,-1.191,1.704,0.599,15.572,0.000,4.270,4.270,4.270,90.0,90.0,90.0,-5.636
MoErO3,Mo,Er,FALSE,3,3,0.69,0.89,cubic,-1.279,1.639,0.599,15.076,0.000,4.224,4.224,4.224,90.0,90.0,90.0,-5.746
MoEuO3,Mo,Eu,FALSE,3,3,0.69,0.95,orthorhombic,-2.442,0.373,0.188,13.797,0.000,5.430,6.124,8.298,90.0,90.0,90.0,-12.294