Chemical formula,A,B,In literature,Valence A,Valence B,Radius A [ang],Radius B [ang],Lowest distortion,Formation energy [eV/atom],Stability [eV/atom],Magnetic moment [mu_B],Volume per atom [A^3/atom],Band gap [eV],a [ang],b [ang],c [ang],alpha [deg],beta [deg],gamma [deg],Vacancy energy [eV/O atom]
BaCsO3,Ba,Cs,FALSE,not balanced,not balanced,1.61,1.67,cubic,-0.977,0.779,-,19.097,0.000,4.571,4.571,4.571,90.0,90.0,90.0,-0.670
BaCuO3,Ba,Cu,FALSE,not balanced,not balanced,1.61,0.68,rhombohedral,-1.458,0.135,-,12.500,0.000,5.615,5.615,5.615,59.9,59.9,59.9,-0.068
BaDyO3,Ba,Dy,FALSE,not balanced,not balanced,1.61,0.99,orthorhombic,-2.981,0.119,0.200,16.739,0.000,6.177,6.199,8.743,90.0,90.0,90.0,0.203
BaErO3,Ba,Er,FALSE,not balanced,not balanced,1.61,0.89,orthorhombic,-3.016,0.108,0.200,16.443,0.000,6.145,6.159,8.689,90.0,90.0,90.0,0.302
BaEuO3,Ba,Eu,FALSE,not balanced,not balanced,1.61,1.06,orthorhombic,-2.298,0.331,0.400,17.647,0.000,6.296,6.422,8.729,90.0,90.0,90.0,-0.631
BaFeO3,Ba,Fe,FALSE,2,4,1.61,0.59,cubic,-2.095,0.000,0.826,12.547,0.000,3.973,3.973,3.973,90.0,90.0,90.0,1.185
BaGaO3,Ba,Ga,FALSE,not balanced,not balanced,1.61,0.62,cubic,-2.147,0.084,-,13.026,0.000,4.023,4.023,4.023,90.0,90.0,90.0,0.071
BaGdO3,Ba,Gd,FALSE,not balanced,not balanced,1.61,0.94,orthorhombic,-2.943,0.134,0.200,17.124,0.000,6.207,6.271,8.798,90.0,90.0,90.0,-
BaGeO3,Ba,Ge,FALSE,2,4,1.61,0.53,rhombohedral,-2.299,0.226,-,12.316,0.000,5.585,5.585,5.585,60.0,60.0,60.0,3.341
BaHfO3,Ba,Hf,TRUE,2,4,1.61,0.71,cubic,-3.625,-0.247,0.000,14.549,3.687,4.174,4.174,4.174,90.0,90.0,90.0,6.962
BaHgO3,Ba,Hg,FALSE,not balanced,not balanced,1.61,1.11,orthorhombic,-1.256,0.197,-,15.617,0.000,6.004,6.090,8.543,90.0,90.0,90.0,-0.106
BaHoO3,Ba,Ho,FALSE,not balanced,not balanced,1.61,0.90,orthorhombic,-2.999,0.118,0.200,16.584,0.000,6.159,6.171,8.727,90.0,90.0,90.0,0.243
BaInO3,Ba,In,FALSE,not balanced,not balanced,1.61,0.80,cubic,-1.998,0.123,-,15.248,0.000,4.240,4.240,4.240,90.0,90.0,90.0,-0.026
BaIrO3,Ba,Ir,FALSE,2,4,1.61,0.63,orthorhombic,-1.727,0.121,0.053,13.345,0.000,5.703,5.773,8.106,90.0,90.0,90.0,2.572
BaKO3,Ba,K,FALSE,not balanced,not balanced,1.61,1.38,cubic,-0.736,1.041,-,17.616,0.000,4.449,4.449,4.449,90.0,90.0,90.0,-2.699
BaLaO3,Ba,La,FALSE,not balanced,not balanced,1.61,1.03,orthorhombic,-2.903,0.132,0.200,18.410,0.000,6.340,6.441,9.017,90.0,90.0,90.0,0.259
BaLiO3,Ba,Li,FALSE,not balanced,not balanced,1.61,0.76,cubic,-1.359,0.560,-,12.471,0.000,3.965,3.965,3.965,90.0,90.0,90.0,-1.374
BaLuO3,Ba,Lu,FALSE,not balanced,not balanced,1.61,0.86,orthorhombic,-3.068,0.095,0.200,15.950,0.000,6.085,6.087,8.613,90.0,90.0,90.0,0.483
BaMgO3,Ba,Mg,FALSE,not balanced,not balanced,1.61,0.72,rhombohedral,-2.112,0.337,-,13.482,0.000,5.755,5.755,5.755,60.0,60.0,60.0,-0.626
BaMnO3,Ba,Mn,FALSE,2,4,1.61,0.53,orthorhombic,-2.269,0.111,0.598,12.644,0.000,5.626,5.638,7.972,90.0,90.0,90.0,1.152
BaMoO3,Ba,Mo,TRUE,2,4,1.61,0.65,cubic,-2.585,0.004,0.000,13.348,0.000,4.056,4.056,4.056,90.0,90.0,90.0,5.505
BaNaO3,Ba,Na,FALSE,not balanced,not balanced,1.61,1.02,cubic,-1.066,0.739,-,15.119,0.000,4.228,4.228,4.228,90.0,90.0,90.0,-1.796
BaNbO3,Ba,Nb,TRUE,2,4,1.61,0.68,cubic,-3.016,-0.035,0.000,14.034,0.000,4.125,4.125,4.125,90.0,90.0,90.0,6.121
BaNdO3,Ba,Nd,FALSE,not balanced,not balanced,1.61,0.98,orthorhombic,-2.841,0.147,0.200,18.073,0.000,6.300,6.404,8.959,90.0,90.0,90.0,0.042
BaNiO3,Ba,Ni,FALSE,2,4,1.61,0.48,orthorhombic,-1.591,0.177,-0.001,12.698,0.000,5.625,5.659,7.979,90.0,90.0,90.0,0.252
BaNpO3,Ba,Np,TRUE,element not in BV,element not in BV,1.61,0.86,orthorhombic,-3.389,-0.089,0.600,17.299,2.570,6.233,6.273,8.849,90.0,90.0,90.0,4.436
BaOsO3,Ba,Os,FALSE,element not in BV,element not in BV,1.61,0.57,cubic,-1.874,-0.103,0.193,13.130,0.000,4.034,4.034,4.034,90.0,90.0,90.0,3.671
BaPaO3,Ba,Pa,TRUE,element not in BV,element not in BV,1.61,0.91,orthorhombic,-3.153,-0.219,0.200,17.997,2.695,6.316,6.361,8.959,90.0,90.0,90.0,6.391
BaPbO3,Ba,Pb,TRUE,2,4,1.61,0.78,orthorhombic,-1.947,-0.066,-,16.081,0.618,6.088,6.120,8.633,90.0,90.0,90.0,1.793
BaPdO3,Ba,Pd,FALSE,2,4,1.61,0.62,orthorhombic,-1.536,-0.005,-,13.648,0.000,5.733,5.793,8.219,90.0,90.0,90.0,0.534
BaPmO3,Ba,Pm,FALSE,element not in BV,element not in BV,1.61,0.97,orthorhombic,-2.872,0.144,0.200,17.779,0.000,6.265,6.366,8.915,90.0,90.0,90.0,0.072
BaPrO3,Ba,Pr,TRUE,2,4,1.61,0.85,orthorhombic,-2.815,0.149,0.200,18.356,0.000,6.323,6.446,9.008,90.0,90.0,90.0,0.014
BaPtO3,Ba,Pt,FALSE,element not in BV,element not in BV,1.61,0.67,orthorhombic,-1.587,0.019,0.000,13.759,0.257,5.743,5.830,8.218,90.0,90.0,90.0,1.235
BaPuO3,Ba,Pu,TRUE,element not in BV,element not in BV,1.61,0.83,rhombohedral,-3.300,0.000,0.800,17.022,2.120,6.197,6.197,6.197,60.5,60.5,60.5,4.205
BaRbO3,Ba,Rb,FALSE,not balanced,not balanced,1.61,1.52,cubic,-0.745,1.007,-,17.900,0.000,4.473,4.473,4.473,90.0,90.0,90.0,-2.030
BaReO3,Ba,Re,FALSE,2,4,1.61,0.63,cubic,-2.199,0.134,0.005,13.167,0.000,4.038,4.038,4.038,90.0,90.0,90.0,4.794
BaRhO3,Ba,Rh,FALSE,2,4,1.61,0.60,orthorhombic,-1.756,0.076,0.188,13.279,0.000,5.705,5.751,8.095,90.0,90.0,90.0,1.905
BaRuO3,Ba,Ru,FALSE,2,4,1.61,0.62,cubic,-1.953,0.071,0.389,13.150,0.000,4.036,4.036,4.036,90.0,90.0,90.0,3.303
BaSbO3,Ba,Sb,FALSE,not balanced,not balanced,1.61,0.68,cubic,-2.254,0.063,-,15.293,0.000,4.244,4.244,4.244,90.0,90.0,90.0,2.979
BaScO3,Ba,Sc,FALSE,not balanced,not balanced,1.61,0.75,cubic,-3.043,0.066,0.200,14.600,0.000,4.179,4.179,4.179,90.0,90.0,90.0,0.463
BaSiO3,Ba,Si,FALSE,not balanced,not balanced,1.61,0.40,cubic,-2.680,0.524,-,11.084,1.289,3.813,3.813,3.813,90.0,90.0,90.0,4.872
BaSmO3,Ba,Sm,FALSE,not balanced,not balanced,1.61,0.96,orthorhombic,-2.888,0.142,0.200,17.603,0.000,6.261,6.335,8.877,90.0,90.0,90.0,0.076
BaSnO3,Ba,Sn,TRUE,2,4,1.61,0.69,cubic,-2.443,-0.052,-,14.338,0.883,4.154,4.154,4.154,90.0,90.0,90.0,4.152
BaSrO3,Ba,Sr,FALSE,not balanced,not balanced,1.61,1.18,cubic,-1.869,0.580,-,18.594,0.000,4.530,4.530,4.530,90.0,90.0,90.0,-1.287
BaTaO3,Ba,Ta,FALSE,2,4,1.61,0.68,cubic,-3.108,0.042,0.000,13.824,0.000,4.104,4.104,4.104,90.0,90.0,90.0,6.487
BaTbO3,Ba,Tb,TRUE,2,4,1.61,0.76,orthorhombic,-2.831,0.130,0.199,16.947,0.000,6.189,6.243,8.773,90.0,90.0,90.0,0.154
BaTcO3,Ba,Tc,FALSE,element not in BV,element not in BV,1.61,0.60,rhombohedral,-2.254,0.056,0.065,13.076,0.000,5.699,5.699,5.699,60.0,60.0,60.0,4.347
BaTeO3,Ba,Te,FALSE,2,4,1.61,0.97,tetragonal,-2.056,0.129,-,16.187,0.743,4.249,4.249,4.483,90.0,90.0,90.0,3.391
BaThO3,Ba,Th,TRUE,2,4,1.61,0.94,orthorhombic,-3.620,-0.004,0.000,18.557,4.363,6.369,6.443,9.045,90.0,90.0,90.0,6.151
BaTiO3,Ba,Ti,TRUE,2,4,1.61,0.61,tetragonal,-3.288,-0.030,0.000,13.029,1.680,3.987,3.987,4.099,90.0,90.0,90.0,5.357
BaTlO3,Ba,Tl,FALSE,not balanced,not balanced,1.61,1.20,orthorhombic,-1.548,0.136,-,16.086,0.000,6.065,6.147,8.630,90.0,90.0,90.0,-0.202
BaTmO3,Ba,Tm,FALSE,not balanced,not balanced,1.61,0.96,orthorhombic,-3.040,0.103,0.199,16.243,0.000,6.128,6.128,8.650,90.0,90.0,90.0,0.343
BaUO3,Ba,U,TRUE,2,4,1.61,0.89,orthorhombic,-3.460,-0.094,0.400,17.580,2.645,6.256,6.320,8.893,90.0,90.0,90.0,5.448
BaVO3,Ba,V,FALSE,2,4,1.61,0.58,orthorhombic,-2.801,0.065,0.200,12.693,0.000,5.583,5.584,8.142,90.0,90.0,90.0,3.522
BaWO3,Ba,W,FALSE,2,4,1.61,0.66,cubic,-2.570,0.157,0.000,13.372,0.000,4.059,4.059,4.059,90.0,90.0,90.0,5.861
BaYO3,Ba,Y,FALSE,not balanced,not balanced,1.61,0.90,orthorhombic,-2.957,0.129,0.200,16.909,0.000,6.185,6.242,8.759,90.0,90.0,90.0,0.106
BaYbO3,Ba,Yb,FALSE,not balanced,not balanced,1.61,0.95,rhombohedral,-2.276,0.398,-,15.993,0.000,6.026,6.026,6.026,61.5,61.5,61.5,-0.463
BaZnO3,Ba,Zn,FALSE,not balanced,not balanced,1.61,0.74,cubic,-1.664,0.267,-,13.177,0.000,4.039,4.039,4.039,90.0,90.0,90.0,-0.437
BaZrO3,Ba,Zr,TRUE,2,4,1.61,0.72,cubic,-3.477,-0.096,0.000,15.082,3.108,4.225,4.225,4.225,90.0,90.0,90.0,6.582
BeAcO3,Be,Ac,FALSE,element not in BV,element not in BV,0.45,1.12,rhombohedral,-2.764,0.213,0.200,14.664,0.000,6.294,6.294,6.294,52.8,52.8,52.8,-5.221
BeAgO3,Be,Ag,FALSE,not balanced,not balanced,0.45,0.95,cubic,0.433,1.732,-,12.136,0.000,3.930,3.930,3.930,90.0,90.0,90.0,-4.424
BeAlO3,Be,Al,FALSE,not balanced,not balanced,0.45,0.54,cubic,-1.523,1.308,-,9.197,0.000,3.583,3.583,3.583,90.0,90.0,90.0,-2.544
BeAsO3,Be,As,FALSE,not balanced,not balanced,0.45,0.52,cubic,-0.630,1.393,-,10.221,0.000,3.711,3.711,3.711,90.0,90.0,90.0,0.562
BeAuO3,Be,Au,FALSE,element not in BV,element not in BV,0.45,0.93,cubic,0.404,1.731,-,12.483,0.000,3.967,3.967,3.967,90.0,90.0,90.0,-3.962
BeBO3,Be,B,FALSE,not balanced,not balanced,0.45,0.27,cubic,-0.834,1.664,-,6.770,0.000,3.235,3.235,3.235,90.0,90.0,90.0,-3.292
BeBaO3,Be,Ba,FALSE,not balanced,not balanced,0.45,1.35,cubic,0.174,2.632,-,18.605,0.000,4.531,4.531,4.531,90.0,90.0,90.0,-10.116
Be2O3,Be,Be,FALSE,not balanced,not balanced,0.45,0.45,cubic,-0.854,1.519,-,7.470,0.000,3.343,3.343,3.343,90.0,90.0,90.0,-5.051
BeBiO3,Be,Bi,FALSE,not balanced,not balanced,0.45,0.90,cubic,-0.286,1.672,-,14.502,0.000,4.170,4.170,4.170,90.0,90.0,90.0,-3.488
BeCaO3,Be,Ca,FALSE,not balanced,not balanced,0.45,1.00,orthorhombic,-2.398,0.093,-,10.423,2.650,5.074,5.731,7.168,90.0,90.0,90.0,-9.030
BeCdO3,Be,Cd,FALSE,not balanced,not balanced,0.45,0.95,cubic,0.302,1.983,-,12.960,0.000,4.017,4.017,4.017,90.0,90.0,90.0,-6.894
BeCeO3,Be,Ce,FALSE,2,4,0.45,0.87,rhombohedral,-2.693,0.254,0.200,14.010,0.000,6.248,6.248,6.248,52.0,52.0,52.0,-6.265
BeCoO3,Be,Co,FALSE,2,4,0.45,0.53,cubic,-0.402,1.411,0.465,9.284,0.000,3.594,3.594,3.594,90.0,90.0,90.0,-2.203
BeCrO3,Be,Cr,FALSE,2,4,0.45,0.55,cubic,-1.060,1.393,0.399,10.041,0.000,3.689,3.689,3.689,90.0,90.0,90.0,-1.020
BeCsO3,Be,Cs,FALSE,not balanced,not balanced,0.45,1.67,cubic,0.936,2.765,-,16.756,0.000,4.376,4.376,4.376,90.0,90.0,90.0,-3.491
BeCuO3,Be,Cu,FALSE,not balanced,not balanced,0.45,0.68,cubic,-0.098,1.411,-,9.484,0.000,3.620,3.620,3.620,90.0,90.0,90.0,-4.049
BeDyO3,Be,Dy,FALSE,not balanced,not balanced,0.45,0.99,cubic,-1.094,2.018,0.206,15.281,0.000,4.243,4.243,4.243,90.0,90.0,90.0,-5.202
BeErO3,Be,Er,FALSE,not balanced,not balanced,0.45,0.89,cubic,-1.158,1.977,0.205,14.847,0.000,4.203,4.203,4.203,90.0,90.0,90.0,-4.972
BeEuO3,Be,Eu,FALSE,not balanced,not balanced,0.45,1.06,orthorhombic,-2.554,0.003,0.000,10.738,2.446,5.065,5.911,7.173,90.0,90.0,90.0,-8.264
BeFeO3,Be,Fe,FALSE,2,4,0.45,0.59,cubic,-0.705,1.307,0.800,9.870,0.000,3.668,3.668,3.668,90.0,90.0,90.0,-1.666
BeGaO3,Be,Ga,FALSE,not balanced,not balanced,0.45,0.62,cubic,-0.692,1.545,-,10.448,0.000,3.738,3.738,3.738,90.0,90.0,90.0,-3.770
BeGdO3,Be,Gd,FALSE,not balanced,not balanced,0.45,0.94,orthorhombic,-2.873,0.210,0.000,10.575,0.238,4.741,5.537,8.056,90.0,90.0,90.0,-5.439
BeGeO3,Be,Ge,FALSE,2,4,0.45,0.53,cubic,-1.002,1.318,-,9.656,0.000,3.641,3.641,3.641,90.0,90.0,90.0,1.025
BeHfO3,Be,Hf,FALSE,2,4,0.45,0.71,cubic,-1.942,1.548,0.000,13.036,0.000,4.024,4.024,4.024,90.0,90.0,90.0,-0.712
BeHgO3,Be,Hg,FALSE,not balanced,not balanced,0.45,1.11,cubic,0.554,1.922,-,13.510,0.000,4.073,4.073,4.073,90.0,90.0,90.0,-8.183
BeHoO3,Be,Ho,FALSE,not balanced,not balanced,0.45,0.90,cubic,-1.127,1.996,0.206,15.049,0.000,4.222,4.222,4.222,90.0,90.0,90.0,-5.075
BeInO3,Be,In,FALSE,not balanced,not balanced,0.45,0.80,cubic,-0.243,1.866,-,13.188,0.000,4.040,4.040,4.040,90.0,90.0,90.0,-4.696
BeIrO3,Be,Ir,FALSE,2,4,0.45,0.63,cubic,-0.197,1.628,0.060,11.415,0.000,3.850,3.850,3.850,90.0,90.0,90.0,-0.806
BeKO3,Be,K,FALSE,not balanced,not balanced,0.45,1.38,cubic,1.240,3.075,-,14.215,0.000,4.142,4.142,4.142,90.0,90.0,90.0,-17.883
BeLaO3,Be,La,FALSE,not balanced,not balanced,0.45,1.03,orthorhombic,-2.872,0.171,0.000,11.458,0.262,4.859,5.637,8.366,90.0,90.0,90.0,-5.623
BeLiO3,Be,Li,FALSE,not balanced,not balanced,0.45,0.76,cubic,-0.004,1.898,-,8.133,0.000,3.439,3.439,3.439,90.0,90.0,90.0,-8.178
BeLuO3,Be,Lu,FALSE,not balanced,not balanced,0.45,0.86,cubic,-1.259,1.908,0.203,14.291,0.000,4.150,4.150,4.150,90.0,90.0,90.0,-4.570
BeMgO3,Be,Mg,FALSE,not balanced,not balanced,0.45,0.72,cubic,-0.557,1.825,-,10.552,0.000,3.751,3.751,3.751,90.0,90.0,90.0,-5.252
BeMnO3,Be,Mn,FALSE,2,4,0.45,0.53,cubic,-0.913,1.324,0.618,9.779,0.000,3.657,3.657,3.657,90.0,90.0,90.0,-1.718
BeMoO3,Be,Mo,FALSE,2,4,0.45,0.65,cubic,-1.171,1.308,-0.006,11.622,0.000,3.873,3.873,3.873,90.0,90.0,90.0,2.844
BeNaO3,Be,Na,FALSE,not balanced,not balanced,0.45,1.02,cubic,0.749,2.562,-,11.924,0.000,3.907,3.907,3.907,90.0,90.0,90.0,-6.244
BeNbO3,Be,Nb,FALSE,2,4,0.45,0.68,cubic,-1.581,1.237,-0.121,12.464,0.000,3.965,3.965,3.965,90.0,90.0,90.0,0.656
BeNdO3,Be,Nd,FALSE,not balanced,not balanced,0.45,0.98,rhombohedral,-2.716,0.344,0.200,13.129,0.000,5.968,5.968,5.968,54.6,54.6,54.6,-5.982
BeNiO3,Be,Ni,FALSE,2,4,0.45,0.48,cubic,-0.235,1.448,0.007,9.284,0.000,3.594,3.594,3.594,90.0,90.0,90.0,-3.345
BeNpO3,Be,Np,FALSE,element not in BV,element not in BV,0.45,0.86,rhombohedral,-3.065,0.348,0.600,12.345,0.000,5.995,5.995,5.995,51.9,51.9,51.9,2.367
BeOsO3,Be,Os,FALSE,element not in BV,element not in BV,0.45,0.57,cubic,-0.453,1.430,0.119,11.322,0.000,3.840,3.840,3.840,90.0,90.0,90.0,0.808
BePaO3,Be,Pa,FALSE,element not in BV,element not in BV,0.45,0.91,cubic,-1.738,1.308,0.001,16.397,0.000,4.344,4.344,4.344,90.0,90.0,90.0,4.253
BePbO3,Be,Pb,FALSE,2,4,0.45,0.78,cubic,-0.096,1.760,-,14.091,0.000,4.130,4.130,4.130,90.0,90.0,90.0,-3.813
BePdO3,Be,Pd,FALSE,2,4,0.45,0.62,cubic,0.094,1.540,-,11.465,0.000,3.856,3.856,3.856,90.0,90.0,90.0,-3.355
BePmO3,Be,Pm,FALSE,element not in BV,element not in BV,0.45,0.97,orthorhombic,-2.836,0.189,0.000,10.952,0.360,4.750,5.662,8.144,90.0,90.0,90.0,-5.832
BePrO3,Be,Pr,FALSE,2,4,0.45,0.85,orthorhombic,-2.803,0.172,0.000,11.293,0.000,4.795,5.754,8.187,90.0,90.0,90.0,-6.027
BePtO3,Be,Pt,FALSE,element not in BV,element not in BV,0.45,0.67,cubic,0.062,1.693,0.063,11.782,0.000,3.891,3.891,3.891,90.0,90.0,90.0,-1.793
BePuO3,Be,Pu,FALSE,element not in BV,element not in BV,0.45,0.83,cubic,-1.444,1.699,0.690,15.673,0.000,4.279,4.279,4.279,90.0,90.0,90.0,-1.600
BeRbO3,Be,Rb,FALSE,not balanced,not balanced,0.45,1.52,cubic,1.215,3.038,-,14.917,0.000,4.209,4.209,4.209,90.0,90.0,90.0,-17.157
BeReO3,Be,Re,FALSE,2,4,0.45,0.63,cubic,-0.851,1.361,0.006,11.423,0.000,3.851,3.851,3.851,90.0,90.0,90.0,1.989
BeRhO3,Be,Rh,FALSE,2,4,0.45,0.60,cubic,-0.191,1.618,0.246,11.255,0.000,3.832,3.832,3.832,90.0,90.0,90.0,-1.580
BeRuO3,Be,Ru,FALSE,2,4,0.45,0.62,cubic,-0.442,1.505,0.393,11.219,0.000,3.828,3.828,3.828,90.0,90.0,90.0,0.043
BeSbO3,Be,Sb,FALSE,2,4,0.45,0.68,cubic,-0.721,1.456,-,12.302,0.000,3.947,3.947,3.947,90.0,90.0,90.0,-0.430
BeScO3,Be,Sc,FALSE,not balanced,not balanced,0.45,0.75,cubic,-1.343,1.747,0.000,12.616,0.000,3.981,3.981,3.981,90.0,90.0,90.0,-4.176
BeSiO3,Be,Si,FALSE,2,4,0.45,0.40,cubic,-1.794,1.243,-,8.185,0.352,3.446,3.446,3.446,90.0,90.0,90.0,4.114
BeSmO3,Be,Sm,FALSE,not balanced,not balanced,0.45,0.96,cubic,-0.928,2.109,0.213,16.605,0.000,4.362,4.362,4.362,90.0,90.0,90.0,-5.733
BeSnO3,Be,Sn,FALSE,2,4,0.45,0.69,cubic,-0.796,1.562,-,12.497,0.000,3.968,3.968,3.968,90.0,90.0,90.0,-1.064
BeSrO3,Be,Sr,FALSE,not balanced,not balanced,0.45,1.18,cubic,0.092,2.574,-,16.643,0.000,4.366,4.366,4.366,90.0,90.0,90.0,-10.413
BeTaO3,Be,Ta,FALSE,2,4,0.45,0.68,cubic,-1.819,1.121,-0.148,12.253,0.000,3.942,3.942,3.942,90.0,90.0,90.0,1.696
BeTbO3,Be,Tb,FALSE,2,4,0.45,0.76,cubic,-0.928,2.038,0.207,15.561,0.000,4.269,4.269,4.269,90.0,90.0,90.0,-5.319
BeTcO3,Be,Tc,FALSE,element not in BV,element not in BV,0.45,0.60,cubic,-0.810,1.397,0.006,11.280,0.000,3.835,3.835,3.835,90.0,90.0,90.0,1.619
BeTeO3,Be,Te,FALSE,2,4,0.45,0.97,cubic,-0.373,1.593,-,13.261,0.000,4.048,4.048,4.048,90.0,90.0,90.0,-0.192
BeThO3,Be,Th,FALSE,2,4,0.45,0.94,cubic,-1.654,2.074,-0.086,18.234,0.000,4.501,4.501,4.501,90.0,90.0,90.0,-3.297
BeTiO3,Be,Ti,FALSE,2,4,0.45,0.61,cubic,-1.778,1.354,0.000,10.925,0.000,3.794,3.794,3.794,90.0,90.0,90.0,0.033
BeTlO3,Be,Tl,FALSE,not balanced,not balanced,0.45,1.20,cubic,0.294,1.949,-,14.014,0.000,4.123,4.123,4.123,90.0,90.0,90.0,-5.482
BeTmO3,Be,Tm,FALSE,not balanced,not balanced,0.45,0.96,cubic,-1.202,1.950,0.204,14.621,0.000,4.181,4.181,4.181,90.0,90.0,90.0,-4.789
BeUO3,Be,U,FALSE,2,4,0.45,0.89,cubic,-1.951,1.527,0.026,15.782,0.000,4.289,4.289,4.289,90.0,90.0,90.0,4.378
BeVO3,Be,V,FALSE,2,4,0.45,0.58,cubic,-1.342,1.347,0.000,10.176,0.000,3.706,3.706,3.706,90.0,90.0,90.0,0.146
BeWO3,Be,W,FALSE,2,4,0.45,0.66,cubic,-1.280,1.213,-0.017,11.697,0.000,3.882,3.882,3.882,90.0,90.0,90.0,3.601
BeYO3,Be,Y,FALSE,not balanced,not balanced,0.45,0.90,cubic,-1.058,2.033,0.207,15.512,0.000,4.265,4.265,4.265,90.0,90.0,90.0,-5.249
BeYbO3,Be,Yb,FALSE,not balanced,not balanced,0.45,0.95,orthorhombic,-2.534,0.056,-,10.042,2.619,5.067,5.659,7.004,90.0,90.0,90.0,-7.823
BeZnO3,Be,Zn,FALSE,not balanced,not balanced,0.45,0.74,cubic,-0.152,1.694,-,10.270,0.000,3.717,3.717,3.717,90.0,90.0,90.0,-4.932
BeZrO3,Be,Zr,FALSE,2,4,0.45,0.72,cubic,-1.735,1.631,0.000,13.640,0.000,4.086,4.086,4.086,90.0,90.0,90.0,-1.469
BiAcO3,Bi,Ac,FALSE,element not in BV,element not in BV,1.38,1.12,cubic,-1.489,1.038,0.004,20.176,0.000,4.655,4.655,4.655,90.0,90.0,90.0,-0.652
BiAgO3,Bi,Ag,FALSE,3,3,1.38,0.75,orthorhombic,-0.816,0.065,-,13.495,0.357,5.780,6.050,7.719,90.0,90.0,90.0,-0.274
BiAlO3,Bi,Al,TRUE,3,3,1.38,0.54,orthorhombic,-2.319,0.069,-,10.885,2.652,5.335,5.391,7.569,90.0,90.0,90.0,4.691
BiAsO3,Bi,As,FALSE,3,3,1.38,0.58,orthorhombic,-1.232,0.228,-,13.453,0.330,5.546,6.004,8.081,90.0,90.0,90.0,1.801
BiAuO3,Bi,Au,FALSE,element not in BV,element not in BV,1.38,0.93,cubic,-0.353,0.553,-,14.074,0.000,4.129,4.129,4.129,90.0,90.0,90.0,-0.165
BiBO3,Bi,B,FALSE,not balanced,not balanced,1.38,0.27,cubic,-1.178,0.944,-,8.995,2.442,3.556,3.556,3.556,90.0,90.0,90.0,3.534
BiBaO3,Bi,Ba,FALSE,not balanced,not balanced,1.38,1.35,orthorhombic,-1.868,0.203,-,19.550,0.000,6.365,6.474,9.489,90.0,90.0,90.0,-7.849
BiBeO3,Bi,Be,FALSE,not balanced,not balanced,1.38,0.45,tetragonal,-1.635,0.322,-,10.501,0.000,3.443,3.443,4.430,90.0,90.0,90.0,-1.210
Bi2O3,Bi,Bi,FALSE,not balanced,not balanced,1.38,0.90,cubic,-0.814,0.660,-,16.427,0.000,4.347,4.347,4.347,90.0,90.0,90.0,0.643
BiCaO3,Bi,Ca,FALSE,not balanced,not balanced,1.38,1.00,orthorhombic,-2.019,0.075,-,14.588,0.000,5.738,5.967,8.520,90.0,90.0,90.0,-
BiCdO3,Bi,Cd,FALSE,not balanced,not balanced,1.38,0.95,cubic,-0.626,0.639,-,14.199,0.000,4.141,4.141,4.141,90.0,90.0,90.0,-1.363
BiCeO3,Bi,Ce,FALSE,2,4,1.38,0.87,cubic,-1.530,0.967,0.042,18.987,0.000,4.562,4.562,4.562,90.0,90.0,90.0,-4.278
BiCoO3,Bi,Co,FALSE,3,3,1.38,0.61,orthorhombic,-1.249,0.136,0.000,11.625,0.441,5.349,5.666,7.671,90.0,90.0,90.0,2.897
BiCrO3,Bi,Cr,FALSE,3,3,1.38,0.62,orthorhombic,-1.962,0.016,0.600,11.928,1.560,5.430,5.647,7.781,90.0,90.0,90.0,3.843
BiCsO3,Bi,Cs,FALSE,not balanced,not balanced,1.38,1.67,orthorhombic,-1.214,0.188,-,21.381,1.054,5.406,6.019,13.142,90.0,90.0,90.0,-3.043
BiCuO3,Bi,Cu,FALSE,3,3,1.38,0.54,orthorhombic,-1.063,0.030,-,11.827,0.000,5.369,5.948,7.408,90.0,90.0,90.0,0.652
BiDyO3,Bi,Dy,FALSE,3,3,1.38,0.91,cubic,-2.004,0.658,0.000,15.976,0.000,4.307,4.307,4.307,90.0,90.0,90.0,-1.152
BiErO3,Bi,Er,FALSE,3,3,1.38,0.89,cubic,-2.085,0.600,0.000,15.533,0.000,4.266,4.266,4.266,90.0,90.0,90.0,-0.310
BiEuO3,Bi,Eu,FALSE,3,3,1.38,0.95,orthorhombic,-2.122,0.133,0.000,15.624,0.000,5.923,6.115,8.628,90.0,90.0,90.0,-4.267
BiFeO3,Bi,Fe,TRUE,3,3,1.38,0.65,orthorhombic,-1.552,0.017,1.000,12.067,1.283,5.447,5.675,7.808,90.0,90.0,90.0,2.587
BiGaO3,Bi,Ga,FALSE,3,3,1.38,0.62,tetragonal,-1.759,0.040,-,12.617,2.053,3.687,3.687,4.642,90.0,90.0,90.0,4.012
BiGdO3,Bi,Gd,FALSE,not balanced,not balanced,1.38,0.94,cubic,-1.912,0.721,0.000,16.640,0.000,4.366,4.366,4.366,90.0,90.0,90.0,-1.812
BiGeO3,Bi,Ge,FALSE,2,4,1.38,0.53,tetragonal,-1.397,0.281,-,13.527,0.000,3.832,3.832,4.607,90.0,90.0,90.0,3.272
BiHfO3,Bi,Hf,FALSE,2,4,1.38,0.71,orthorhombic,-2.527,0.268,0.003,13.754,0.000,5.725,5.770,8.328,90.0,90.0,90.0,4.027
BiHgO3,Bi,Hg,FALSE,not balanced,not balanced,1.38,1.11,orthorhombic,-0.821,0.132,-,15.127,0.000,5.630,5.983,8.983,90.0,90.0,90.0,-1.240