Chemical formula,A,B,In literature,Valence A,Valence B,Radius A [ang],Radius B [ang],Lowest distortion,Formation energy [eV/atom],Stability [eV/atom],Magnetic moment [mu_B],Volume per atom [A^3/atom],Band gap [eV],a [ang],b [ang],c [ang],alpha [deg],beta [deg],gamma [deg],Vacancy energy [eV/O atom]
IrTbO3,Ir,Tb,FALSE,3,3,0.68,0.92,cubic,-0.473,1.786,0.807,15.915,0.000,4.301,4.301,4.301,90.0,90.0,90.0,-8.596
IrTcO3,Ir,Tc,FALSE,element not in BV,element not in BV,0.63,0.60,cubic,-0.182,1.157,0.390,11.631,0.000,3.874,3.874,3.874,90.0,90.0,90.0,0.417
IrTeO3,Ir,Te,FALSE,not balanced,not balanced,0.63,0.77,cubic,0.247,1.346,0.499,13.695,0.000,4.091,4.091,4.091,90.0,90.0,90.0,-0.855
IrThO3,Ir,Th,FALSE,not balanced,not balanced,0.63,0.94,cubic,-1.109,1.752,0.624,18.489,0.000,4.522,4.522,4.522,90.0,90.0,90.0,-4.929
IrTiO3,Ir,Ti,FALSE,3,3,0.68,0.67,cubic,-1.152,1.113,0.603,11.409,0.000,3.850,3.850,3.850,90.0,90.0,90.0,-1.560
IrTlO3,Ir,Tl,FALSE,3,3,0.68,0.89,rhombohedral,-0.731,0.253,0.400,17.947,0.544,5.943,5.943,5.943,70.1,70.1,70.1,-10.072
IrTmO3,Ir,Tm,FALSE,3,3,0.68,0.88,cubic,-0.764,1.681,0.802,14.978,0.000,4.215,4.215,4.215,90.0,90.0,90.0,-7.710
IrUO3,Ir,U,FALSE,3,3,0.68,1.03,cubic,-1.349,1.262,0.701,15.876,0.000,4.298,4.298,4.298,90.0,90.0,90.0,3.247
IrVO3,Ir,V,FALSE,3,3,0.68,0.64,cubic,-0.690,1.131,0.643,10.822,0.000,3.782,3.782,3.782,90.0,90.0,90.0,-2.370
IrWO3,Ir,W,FALSE,3,3,0.68,0.66,cubic,-0.656,1.300,0.391,11.950,0.000,3.909,3.909,3.909,90.0,90.0,90.0,1.469
IrYO3,Ir,Y,FALSE,3,3,0.68,0.90,cubic,-0.617,1.766,0.804,15.817,0.000,4.292,4.292,4.292,90.0,90.0,90.0,-8.380
IrYbO3,Ir,Yb,FALSE,3,3,0.68,0.87,rhombohedral,-1.731,0.375,0.068,13.293,0.000,5.616,5.616,5.616,62.7,62.7,62.7,-12.016
IrZnO3,Ir,Zn,FALSE,not balanced,not balanced,0.63,0.74,cubic,0.319,1.617,0.873,11.084,0.000,3.813,3.813,3.813,90.0,90.0,90.0,-8.033
IrZrO3,Ir,Zr,FALSE,3,3,0.68,0.72,cubic,-1.191,1.308,0.608,13.892,0.000,4.111,4.111,4.111,90.0,90.0,90.0,-2.392
KAcO3,K,Ac,FALSE,element not in BV,element not in BV,1.64,1.12,rhombohedral,-2.058,0.310,0.000,18.497,0.000,6.385,6.385,6.385,60.2,60.2,60.2,-0.448
KAgO3,K,Ag,FALSE,not balanced,not balanced,1.64,0.95,orthorhombic,-0.313,0.442,-,13.520,0.000,5.644,5.735,8.354,90.0,90.0,90.0,-1.608
KAlO3,K,Al,FALSE,not balanced,not balanced,1.64,0.54,cubic,-1.857,0.411,-,11.075,0.000,3.812,3.812,3.812,90.0,90.0,90.0,-1.447
KAsO3,K,As,FALSE,not balanced,not balanced,1.64,0.52,rhombohedral,-1.355,0.372,-,11.008,0.000,5.377,5.377,5.377,60.1,60.1,60.1,0.502
KAuO3,K,Au,FALSE,element not in BV,element not in BV,1.64,0.93,orthorhombic,-0.444,0.363,-,13.223,0.000,5.637,5.703,8.226,90.0,90.0,90.0,-1.585
KBO3,K,B,FALSE,not balanced,not balanced,1.64,0.27,cubic,-0.648,1.400,-,8.826,0.000,3.534,3.534,3.534,90.0,90.0,90.0,-4.715
KBaO3,K,Ba,FALSE,not balanced,not balanced,1.64,1.35,cubic,-1.017,0.760,-,19.726,0.000,4.620,4.620,4.620,90.0,90.0,90.0,-1.657
KBeO3,K,Be,FALSE,not balanced,not balanced,1.64,0.45,cubic,-0.918,0.917,-,9.916,0.000,3.674,3.674,3.674,90.0,90.0,90.0,-3.124
KBiO3,K,Bi,TRUE,1,5,1.64,0.76,orthorhombic,-1.352,0.098,-,14.845,0.273,5.912,5.970,8.412,90.0,90.0,90.0,0.393
KCaO3,K,Ca,FALSE,not balanced,not balanced,1.64,1.00,cubic,-1.156,0.771,-,17.229,0.000,4.416,4.416,4.416,90.0,90.0,90.0,-1.823
KCdO3,K,Cd,FALSE,not balanced,not balanced,1.64,0.95,cubic,-0.527,0.616,-,15.020,0.000,4.219,4.219,4.219,90.0,90.0,90.0,-1.451
KCeO3,K,Ce,FALSE,not balanced,not balanced,1.64,0.94,orthorhombic,-1.938,0.400,0.399,18.832,0.000,6.439,6.464,9.048,90.0,90.0,90.0,-0.902
KCoO3,K,Co,FALSE,not balanced,not balanced,1.64,0.63,tetragonal,-1.001,0.246,0.885,12.307,0.000,3.685,3.685,4.531,90.0,90.0,90.0,-2.955
KCrO3,K,Cr,FALSE,1,5,1.64,0.49,tetragonal,-1.760,0.289,0.237,13.099,0.000,3.614,3.614,5.013,90.0,90.0,90.0,-0.011
KCsO3,K,Cs,FALSE,not balanced,not balanced,1.64,1.67,cubic,-0.251,0.898,-,17.325,0.000,4.425,4.425,4.425,90.0,90.0,90.0,-1.190
KCuO3,K,Cu,FALSE,not balanced,not balanced,1.64,0.68,cubic,-0.509,0.500,-,11.323,0.000,3.840,3.840,3.840,90.0,90.0,90.0,-1.655
KDyO3,K,Dy,FALSE,not balanced,not balanced,1.64,0.99,cubic,-2.133,0.369,0.400,17.226,0.000,4.416,4.416,4.416,90.0,90.0,90.0,-0.865
KErO3,K,Er,FALSE,not balanced,not balanced,1.64,0.89,cubic,-2.169,0.366,0.400,16.819,0.000,4.381,4.381,4.381,90.0,90.0,90.0,-0.788
KEuO3,K,Eu,FALSE,not balanced,not balanced,1.64,1.06,cubic,-1.411,0.596,0.600,18.467,0.000,4.520,4.520,4.520,90.0,90.0,90.0,-0.995
KFeO3,K,Fe,FALSE,not balanced,not balanced,1.64,0.67,tetragonal,-1.252,0.193,0.691,12.312,0.000,3.677,3.677,4.554,90.0,90.0,90.0,-0.610
KGaO3,K,Ga,FALSE,not balanced,not balanced,1.64,0.62,cubic,-1.227,0.417,-,12.286,0.000,3.946,3.946,3.946,90.0,90.0,90.0,-1.802
KGdO3,K,Gd,FALSE,not balanced,not balanced,1.64,0.94,cubic,-2.094,0.380,0.400,17.681,0.000,4.455,4.455,4.455,90.0,90.0,90.0,-0.880
KGeO3,K,Ge,FALSE,not balanced,not balanced,1.64,0.63,rhombohedral,-1.472,0.263,-,11.248,0.000,5.416,5.416,5.416,60.1,60.1,60.1,-0.540
KHfO3,K,Hf,FALSE,not balanced,not balanced,1.64,0.71,orthorhombic,-2.788,0.096,0.200,14.248,0.000,5.856,5.869,8.292,90.0,90.0,90.0,0.398
KHgO3,K,Hg,FALSE,not balanced,not balanced,1.64,1.11,cubic,-0.302,0.529,-,15.258,0.000,4.241,4.241,4.241,90.0,90.0,90.0,-1.420
KHoO3,K,Ho,FALSE,not balanced,not balanced,1.64,0.90,orthorhombic,-2.152,0.363,0.400,16.945,0.000,6.193,6.232,8.782,90.0,90.0,90.0,-0.846
KInO3,K,In,FALSE,not balanced,not balanced,1.64,0.80,cubic,-1.076,0.449,-,15.018,0.000,4.219,4.219,4.219,90.0,90.0,90.0,-1.395
KIrO3,K,Ir,FALSE,1,5,1.64,0.57,orthorhombic,-1.133,0.192,0.155,12.069,0.000,5.521,5.575,7.842,90.0,90.0,90.0,1.458
K2O3,K,K,FALSE,not balanced,not balanced,1.64,1.38,orthorhombic,-0.842,0.313,-,19.173,0.000,6.610,7.369,7.873,90.0,90.0,90.0,-10.721
KLaO3,K,La,FALSE,not balanced,not balanced,1.64,1.03,orthorhombic,-2.065,0.371,0.400,18.346,0.000,6.372,6.394,9.005,90.0,90.0,90.0,-0.830
KLiO3,K,Li,FALSE,not balanced,not balanced,1.64,0.76,cubic,-0.344,0.953,-,11.399,0.000,3.848,3.848,3.848,90.0,90.0,90.0,-2.728
KLuO3,K,Lu,FALSE,not balanced,not balanced,1.64,0.86,rhombohedral,-2.221,0.337,0.400,16.121,0.000,6.084,6.084,6.084,60.5,60.5,60.5,-0.716
KMgO3,K,Mg,FALSE,not balanced,not balanced,1.64,0.72,cubic,-1.144,0.683,-,12.830,0.000,4.003,4.003,4.003,90.0,90.0,90.0,-1.746
KMnO3,K,Mn,FALSE,not balanced,not balanced,1.64,0.62,tetragonal,-1.465,0.196,0.400,12.669,0.000,3.653,3.653,4.747,90.0,90.0,90.0,-1.027
KMoO3,K,Mo,FALSE,1,5,1.64,0.61,rhombohedral,-2.247,0.032,0.000,12.235,0.000,5.572,5.572,5.572,60.0,60.0,60.0,5.020
KNaO3,K,Na,FALSE,not balanced,not balanced,1.64,1.02,cubic,-0.069,1.113,-,15.205,0.000,4.236,4.236,4.236,90.0,90.0,90.0,-2.431
KNbO3,K,Nb,TRUE,1,5,1.64,0.64,tetragonal,-2.697,-0.221,0.000,13.332,1.714,4.003,4.003,4.161,90.0,90.0,90.0,5.482
KNdO3,K,Nd,FALSE,not balanced,not balanced,1.64,0.98,orthorhombic,-1.992,0.396,0.400,18.285,0.000,6.373,6.385,8.987,90.0,90.0,90.0,-0.889
KNiO3,K,Ni,FALSE,not balanced,not balanced,1.64,0.59,cubic,-0.634,0.512,0.704,11.866,0.000,3.900,3.900,3.900,90.0,90.0,90.0,-1.415
KNpO3,K,Np,FALSE,element not in BV,element not in BV,1.64,0.86,orthorhombic,-2.884,-0.142,0.400,15.980,1.897,6.072,6.101,8.627,90.0,90.0,90.0,1.454
KOsO3,K,Os,FALSE,element not in BV,element not in BV,1.64,0.57,cubic,-1.467,0.015,-0.001,11.890,0.000,3.903,3.903,3.903,90.0,90.0,90.0,3.294
KPaO3,K,Pa,TRUE,element not in BV,element not in BV,1.64,0.91,cubic,-2.947,-0.567,0.000,16.978,4.236,4.395,4.395,4.395,90.0,90.0,90.0,6.314
KPbO3,K,Pb,FALSE,not balanced,not balanced,1.64,0.99,orthorhombic,-1.041,0.205,-,16.374,0.000,6.132,6.135,8.705,90.0,90.0,90.0,-0.959
KPdO3,K,Pd,FALSE,not balanced,not balanced,1.64,0.75,tetragonal,-0.668,0.283,-,13.256,0.000,3.878,3.878,4.407,90.0,90.0,90.0,-1.255
KPmO3,K,Pm,FALSE,element not in BV,element not in BV,1.64,0.97,rhombohedral,-2.023,0.393,0.400,18.067,0.000,6.286,6.286,6.286,61.3,61.3,61.3,-0.854
KPrO3,K,Pr,FALSE,not balanced,not balanced,1.64,0.92,orthorhombic,-1.967,0.401,0.400,18.564,0.000,6.409,6.431,9.009,90.0,90.0,90.0,-0.920
KPtO3,K,Pt,FALSE,element not in BV,element not in BV,1.64,0.67,orthorhombic,-0.847,0.228,0.200,12.517,0.000,5.575,5.639,7.963,90.0,90.0,90.0,-0.200
KPuO3,K,Pu,FALSE,element not in BV,element not in BV,1.64,0.83,orthorhombic,-2.652,-0.100,0.600,15.942,1.203,6.060,6.101,8.624,90.0,90.0,90.0,1.309
KRbO3,K,Rb,FALSE,not balanced,not balanced,1.64,1.52,orthorhombic,-1.044,0.102,-,18.489,2.246,6.635,7.351,7.581,90.0,90.0,90.0,-2.794
KReO3,K,Re,FALSE,1,5,1.64,0.58,cubic,-1.920,0.008,0.000,11.989,0.000,3.914,3.914,3.914,90.0,90.0,90.0,5.027
KRhO3,K,Rh,FALSE,not balanced,not balanced,1.64,0.61,tetragonal,-1.030,0.192,0.424,12.434,0.000,3.925,3.925,4.035,90.0,90.0,90.0,0.416
KRuO3,K,Ru,FALSE,1,5,1.64,0.57,orthorhombic,-1.363,0.089,0.000,11.871,0.000,5.516,5.517,7.803,90.0,90.0,90.0,2.026
KSbO3,K,Sb,FALSE,1,5,1.64,0.60,orthorhombic,-1.742,0.151,-,12.735,0.275,5.641,5.649,7.992,90.0,90.0,90.0,2.508
KScO3,K,Sc,FALSE,not balanced,not balanced,1.64,0.75,cubic,-2.180,0.313,0.400,14.429,0.000,4.163,4.163,4.163,90.0,90.0,90.0,-0.848
KSiO3,K,Si,FALSE,not balanced,not balanced,1.64,0.40,tetragonal,-2.178,0.306,-,12.242,0.000,3.323,3.323,5.542,90.0,90.0,90.0,-0.496
KSmO3,K,Sm,FALSE,not balanced,not balanced,1.64,0.96,orthorhombic,-2.038,0.390,0.400,17.899,0.000,6.324,6.347,8.919,90.0,90.0,90.0,-0.854
KSnO3,K,Sn,FALSE,not balanced,not balanced,1.64,0.69,rhombohedral,-1.570,0.164,-,13.904,0.000,5.815,5.815,5.815,60.0,60.0,60.0,-0.076
KSrO3,K,Sr,FALSE,not balanced,not balanced,1.64,1.18,cubic,-1.018,0.809,-,19.430,0.000,4.597,4.597,4.597,90.0,90.0,90.0,-2.007
KTaO3,K,Ta,TRUE,1,5,1.64,0.64,rhombohedral,-2.920,-0.380,0.000,12.838,2.324,5.663,5.663,5.663,60.0,60.0,60.0,6.626
KTbO3,K,Tb,FALSE,not balanced,not balanced,1.64,0.84,cubic,-1.983,0.375,0.400,17.438,0.000,4.434,4.434,4.434,90.0,90.0,90.0,-0.869
KTcO3,K,Tc,FALSE,element not in BV,element not in BV,1.64,0.60,cubic,-1.832,-0.048,0.000,11.898,0.000,3.904,3.904,3.904,90.0,90.0,90.0,3.877
KTeO3,K,Te,FALSE,not balanced,not balanced,1.64,0.77,orthorhombic,-1.482,0.003,-,13.662,0.000,5.781,5.781,8.176,90.0,90.0,90.0,1.684
KThO3,K,Th,FALSE,not balanced,not balanced,1.64,0.94,orthorhombic,-2.835,0.213,0.200,18.058,0.000,6.331,6.355,8.977,90.0,90.0,90.0,0.358
KTiO3,K,Ti,FALSE,not balanced,not balanced,1.64,0.71,tetragonal,-2.443,0.154,0.201,12.265,0.000,3.943,3.943,3.944,90.0,90.0,90.0,-0.130
KTlO3,K,Tl,FALSE,not balanced,not balanced,1.64,1.20,orthorhombic,-0.617,0.463,-,15.731,0.000,6.058,6.068,8.559,90.0,90.0,90.0,-1.539
KTmO3,K,Tm,FALSE,not balanced,not balanced,1.64,0.96,cubic,-2.194,0.349,0.400,16.552,0.000,4.358,4.358,4.358,90.0,90.0,90.0,-0.757
KUO3,K,U,TRUE,not balanced,not balanced,1.64,0.85,orthorhombic,-3.140,-0.065,0.200,16.302,3.197,6.120,6.144,8.671,90.0,90.0,90.0,-11.265
KVO3,K,V,FALSE,1,5,1.64,0.54,tetragonal,-2.271,0.099,0.000,12.542,0.284,3.685,3.685,4.618,90.0,90.0,90.0,2.017
KWO3,K,W,FALSE,1,5,1.64,0.62,orthorhombic,-2.372,-0.004,-0.001,12.255,0.000,5.572,5.577,7.887,90.0,90.0,90.0,6.026
KYO3,K,Y,FALSE,not balanced,not balanced,1.64,0.90,orthorhombic,-2.110,0.380,0.400,17.362,0.000,6.167,6.355,8.859,90.0,90.0,90.0,-0.871
KYbO3,K,Yb,FALSE,not balanced,not balanced,1.64,0.95,cubic,-1.327,0.725,-,15.839,0.000,4.294,4.294,4.294,90.0,90.0,90.0,-1.331
KZnO3,K,Zn,FALSE,not balanced,not balanced,1.64,0.74,cubic,-0.701,0.608,-,12.254,0.000,3.942,3.942,3.942,90.0,90.0,90.0,-1.732
KZrO3,K,Zr,FALSE,not balanced,not balanced,1.64,0.72,orthorhombic,-2.639,0.120,0.200,14.879,0.000,5.941,5.955,8.412,90.0,90.0,90.0,0.148
LaAcO3,La,Ac,FALSE,element not in BV,element not in BV,1.36,1.12,cubic,-2.568,1.078,-0.002,20.589,0.273,4.687,4.687,4.687,90.0,90.0,90.0,2.449
LaAgO3,La,Ag,FALSE,3,3,1.36,0.75,orthorhombic,-1.962,0.007,0.000,13.645,0.000,5.635,5.994,8.080,90.0,90.0,90.0,0.272
LaAlO3,La,Al,TRUE,3,3,1.36,0.54,rhombohedral,-3.561,-0.072,0.000,10.913,4.122,5.359,5.359,5.359,60.1,60.1,60.1,-
LaAsO3,La,As,FALSE,3,3,1.36,0.58,orthorhombic,-2.415,0.236,0.000,13.681,0.000,5.658,5.954,8.122,90.0,90.0,90.0,3.038
LaAuO3,La,Au,FALSE,element not in BV,element not in BV,1.36,0.93,cubic,-1.614,0.533,-0.005,14.190,0.000,4.140,4.140,4.140,90.0,90.0,90.0,0.235
LaBO3,La,B,FALSE,not balanced,not balanced,1.36,0.27,cubic,-2.441,0.916,0.000,9.267,2.138,3.592,3.592,3.592,90.0,90.0,90.0,4.680
LaBaO3,La,Ba,FALSE,not balanced,not balanced,1.36,1.35,orthorhombic,-2.787,0.248,0.200,20.096,0.520,6.660,6.722,8.977,90.0,90.0,90.0,-2.741
LaBeO3,La,Be,FALSE,not balanced,not balanced,1.36,0.45,tetragonal,-2.758,0.285,0.199,9.902,0.000,3.669,3.669,3.677,90.0,90.0,90.0,-0.348
LaBiO3,La,Bi,FALSE,3,3,1.36,1.03,cubic,-1.900,0.693,0.000,17.183,0.000,4.413,4.413,4.413,90.0,90.0,90.0,1.980
LaCaO3,La,Ca,FALSE,not balanced,not balanced,1.36,1.00,cubic,-2.484,0.663,0.200,14.681,0.000,4.187,4.187,4.187,90.0,90.0,90.0,-1.704
LaCdO3,La,Cd,FALSE,not balanced,not balanced,1.36,0.95,orthorhombic,-2.236,0.115,0.000,14.348,0.000,5.723,6.093,8.229,90.0,90.0,90.0,-0.184
LaCeO3,La,Ce,FALSE,3,3,1.36,1.01,cubic,-2.700,0.916,0.000,18.942,0.687,4.558,4.558,4.558,90.0,90.0,90.0,3.087
LaCoO3,La,Co,TRUE,3,3,1.36,0.61,orthorhombic,-2.505,-0.022,0.403,11.446,0.000,5.440,5.454,7.716,90.0,90.0,90.0,2.964
LaCrO3,La,Cr,TRUE,3,3,1.36,0.62,orthorhombic,-3.168,-0.071,0.600,12.024,2.070,5.506,5.586,7.819,90.0,90.0,90.0,4.845
LaCsO3,La,Cs,FALSE,not balanced,not balanced,1.36,1.67,tetragonal,-1.739,0.681,0.001,19.328,0.000,3.878,3.878,6.427,90.0,90.0,90.0,-
LaCuO3,La,Cu,TRUE,3,3,1.36,0.54,orthorhombic,-2.237,0.027,0.000,11.380,0.000,5.414,5.470,7.686,90.0,90.0,90.0,1.357
LaDyO3,La,Dy,FALSE,3,3,1.36,0.91,cubic,-3.253,0.529,0.000,15.915,1.850,4.301,4.301,4.301,90.0,90.0,90.0,4.719
LaErO3,La,Er,TRUE,3,3,1.36,0.89,orthorhombic,-3.776,0.028,0.000,14.809,4.586,5.832,6.040,8.409,90.0,90.0,90.0,4.912
LaEuO3,La,Eu,FALSE,3,3,1.36,0.95,cubic,-2.492,0.723,0.137,15.833,0.000,4.294,4.294,4.294,90.0,90.0,90.0,-1.022
LaFeO3,La,Fe,TRUE,3,3,1.36,0.65,orthorhombic,-2.755,-0.035,1.000,12.186,1.092,5.520,5.621,7.855,90.0,90.0,90.0,4.037
LaGaO3,La,Ga,TRUE,3,3,1.36,0.62,orthorhombic,-2.935,-0.028,0.000,11.923,3.829,5.512,5.536,7.815,90.0,90.0,90.0,4.934
LaGdO3,La,Gd,FALSE,3,3,1.36,0.94,cubic,-3.149,0.604,0.000,16.472,1.561,4.351,4.351,4.351,90.0,90.0,90.0,3.005
LaGeO3,La,Ge,FALSE,3,3,1.36,0.63,rhombohedral,-2.537,0.295,0.000,12.882,0.000,5.623,5.623,5.623,61.1,61.1,61.1,3.222
LaHfO3,La,Hf,FALSE,2,4,1.36,0.71,orthorhombic,-3.481,0.175,0.000,13.675,0.000,5.709,5.898,8.123,90.0,90.0,90.0,5.446
LaHgO3,La,Hg,FALSE,not balanced,not balanced,1.36,1.11,orthorhombic,-1.948,0.090,0.000,15.065,0.000,5.730,6.460,8.140,90.0,90.0,90.0,-0.136
LaHoO3,La,Ho,TRUE,3,3,1.36,0.90,orthorhombic,-3.759,0.034,0.000,14.973,4.546,5.849,6.063,8.445,90.0,90.0,90.0,4.805
LaInO3,La,In,TRUE,3,3,1.36,0.80,orthorhombic,-2.773,0.006,0.000,14.094,3.131,5.721,5.972,8.251,90.0,90.0,90.0,3.397
LaIrO3,La,Ir,FALSE,3,3,1.36,0.68,orthorhombic,-2.255,0.085,0.000,12.737,0.809,5.466,5.894,7.908,90.0,90.0,90.0,0.504
LaKO3,La,K,FALSE,not balanced,not balanced,1.36,1.38,orthorhombic,-1.939,0.498,0.126,19.156,0.000,6.240,6.312,9.727,90.0,90.0,90.0,-3.241
La2O3,La,La,FALSE,3,3,1.36,1.03,cubic,-2.825,0.888,0.000,19.361,0.595,4.592,4.592,4.592,90.0,90.0,90.0,3.112
LaLiO3,La,Li,FALSE,not balanced,not balanced,1.36,0.76,orthorhombic,-2.263,0.275,0.400,11.446,0.349,5.296,5.689,7.598,90.0,90.0,90.0,-0.623
LaLuO3,La,Lu,TRUE,3,3,1.36,0.86,rhombohedral,-3.782,0.055,0.000,14.353,4.557,5.841,5.841,5.841,60.8,60.8,60.8,5.238
LaMgO3,La,Mg,FALSE,not balanced,not balanced,1.36,0.72,orthorhombic,-2.917,0.126,0.200,12.390,0.000,5.484,5.767,7.834,90.0,90.0,90.0,-0.448
LaMnO3,La,Mn,TRUE,3,3,1.36,0.65,orthorhombic,-2.932,0.000,0.800,12.188,0.000,5.509,5.663,7.814,90.0,90.0,90.0,3.921
LaMoO3,La,Mo,FALSE,3,3,1.36,0.69,orthorhombic,-2.681,0.210,0.388,13.065,0.000,5.543,5.903,7.987,90.0,90.0,90.0,3.435
LaNaO3,La,Na,FALSE,not balanced,not balanced,1.36,1.02,cubic,-1.717,0.719,0.400,12.973,0.000,4.018,4.018,4.018,90.0,90.0,90.0,-1.697
LaNbO3,La,Nb,FALSE,1,5,1.36,0.64,orthorhombic,-3.006,0.176,0.039,13.412,0.000,5.610,5.963,8.018,90.0,90.0,90.0,4.563
LaNdO3,La,Nd,FALSE,3,3,1.36,0.98,cubic,-2.871,0.796,0.000,17.976,1.024,4.479,4.479,4.479,90.0,90.0,90.0,3.701
LaNiO3,La,Ni,TRUE,3,3,1.36,0.60,orthorhombic,-2.376,-0.019,0.215,11.329,0.000,5.402,5.466,7.674,90.0,90.0,90.0,1.465
LaNpO3,La,Np,FALSE,element not in BV,element not in BV,1.36,0.86,-,-,-,-,-,-,-,-,-,-,-,-,-
LaOsO3,La,Os,FALSE,element not in BV,element not in BV,1.36,0.57,orthorhombic,-2.209,0.256,0.093,12.602,0.000,5.345,6.023,7.829,90.0,90.0,90.0,1.597
LaPaO3,La,Pa,FALSE,element not in BV,element not in BV,1.36,0.91,cubic,-2.671,0.580,0.328,18.064,0.000,4.487,4.487,4.487,90.0,90.0,90.0,4.276
LaPbO3,La,Pb,FALSE,2,4,1.36,0.78,cubic,-1.856,0.617,0.000,16.312,0.000,4.337,4.337,4.337,90.0,90.0,90.0,1.344
LaPdO3,La,Pd,FALSE,2,4,1.36,0.62,orthorhombic,-2.195,0.008,-0.001,13.027,0.000,5.592,5.914,7.879,90.0,90.0,90.0,0.907
LaPmO3,La,Pm,FALSE,element not in BV,element not in BV,1.36,0.97,cubic,-2.955,0.739,0.000,17.510,1.205,4.440,4.440,4.440,90.0,90.0,90.0,3.929
LaPrO3,La,Pr,FALSE,3,3,1.36,0.99,cubic,-2.792,0.852,0.000,18.427,0.859,4.517,4.517,4.517,90.0,90.0,90.0,3.411
LaPtO3,La,Pt,FALSE,element not in BV,element not in BV,1.36,0.67,orthorhombic,-2.127,0.077,0.000,13.219,0.000,5.638,6.101,7.686,90.0,90.0,90.0,0.551
LaPuO3,La,Pu,FALSE,element not in BV,element not in BV,1.36,0.83,cubic,-2.954,0.719,0.957,17.189,0.000,4.413,4.413,4.413,90.0,90.0,90.0,3.178
LaRbO3,La,Rb,FALSE,not balanced,not balanced,1.36,1.52,orthorhombic,-2.186,0.239,0.000,19.456,1.452,6.524,6.582,9.063,90.0,90.0,90.0,-2.592
LaReO3,La,Re,FALSE,3,3,1.36,0.63,cubic,-2.206,0.526,0.137,12.721,0.000,3.992,3.992,3.992,90.0,90.0,90.0,-
LaRhO3,La,Rh,TRUE,3,3,1.36,0.67,orthorhombic,-2.386,-0.062,0.000,12.605,0.674,5.503,5.806,7.890,90.0,90.0,90.0,1.140
LaRuO3,La,Ru,TRUE,3,3,1.36,0.68,orthorhombic,-2.396,0.040,0.196,12.563,0.000,5.453,5.850,7.876,90.0,90.0,90.0,2.045
LaSbO3,La,Sb,FALSE,3,3,1.36,0.76,cubic,-2.075,0.622,-0.001,15.471,0.000,4.261,4.261,4.261,90.0,90.0,90.0,2.310
LaScO3,La,Sc,TRUE,3,3,1.36,0.75,orthorhombic,-3.789,-0.029,0.000,13.241,4.099,5.653,5.799,8.078,90.0,90.0,90.0,5.579
LaSiO3,La,Si,FALSE,3,3,1.36,0.40,cubic,-2.751,0.596,0.000,11.122,0.000,3.817,3.817,3.817,90.0,90.0,90.0,4.551
LaSmO3,La,Sm,FALSE,3,3,1.36,0.96,cubic,-3.007,0.700,0.000,17.209,1.406,4.415,4.415,4.415,90.0,90.0,90.0,-
LaSnO3,La,Sn,FALSE,2,4,1.36,0.69,cubic,-2.298,0.525,0.003,14.488,0.000,4.169,4.169,4.169,90.0,90.0,90.0,2.916
LaSrO3,La,Sr,FALSE,not balanced,not balanced,1.36,1.18,cubic,-2.083,1.010,0.003,17.103,0.000,4.406,4.406,4.406,90.0,90.0,90.0,-2.213
LaTaO3,La,Ta,FALSE,1,5,1.36,0.64,orthorhombic,-3.010,0.293,0.011,13.244,0.000,5.583,5.938,7.990,90.0,90.0,90.0,4.629
LaTbO3,La,Tb,FALSE,3,3,1.36,0.92,cubic,-3.071,0.565,0.000,16.182,1.710,4.325,4.325,4.325,90.0,90.0,90.0,4.600
LaTcO3,La,Tc,FALSE,element not in BV,element not in BV,1.36,0.60,orthorhombic,-2.531,0.090,0.392,12.754,0.000,5.497,5.861,7.918,90.0,90.0,90.0,2.914
LaTeO3,La,Te,FALSE,2,4,1.36,0.97,cubic,-1.762,0.776,0.001,15.711,0.000,4.283,4.283,4.283,90.0,90.0,90.0,1.895
LaThO3,La,Th,FALSE,2,4,1.36,0.94,cubic,-3.077,0.703,0.124,19.038,0.000,4.566,4.566,4.566,90.0,90.0,90.0,3.971
LaTiO3,La,Ti,TRUE,3,3,1.36,0.67,orthorhombic,-3.465,0.010,0.039,12.286,0.000,5.524,5.645,7.879,90.0,90.0,90.0,-
LaTlO3,La,Tl,FALSE,3,3,1.36,0.89,orthorhombic,-2.287,0.038,0.000,15.167,1.302,5.817,6.164,8.460,90.0,90.0,90.0,1.289
LaTmO3,La,Tm,TRUE,3,3,1.36,0.88,orthorhombic,-3.800,0.022,0.000,14.634,4.590,5.814,6.017,8.367,90.0,90.0,90.0,5.056
LaUO3,La,U,FALSE,1,5,1.36,0.76,cubic,-2.868,0.706,0.565,17.215,0.000,4.415,4.415,4.415,90.0,90.0,90.0,3.368
LaVO3,La,V,TRUE,3,3,1.36,0.64,orthorhombic,-3.248,-0.077,0.400,12.379,1.248,5.537,5.689,7.859,90.0,90.0,90.0,4.609
LaWO3,La,W,FALSE,3,3,1.36,0.66,orthorhombic,-2.569,0.355,0.000,12.879,0.000,5.478,5.950,7.902,90.0,90.0,90.0,3.061
LaYO3,La,Y,FALSE,3,3,1.36,0.90,cubic,-3.229,0.531,0.000,15.904,1.912,4.300,4.300,4.300,90.0,90.0,90.0,4.641