Chemical formula,A,B,In literature,Valence A,Valence B,Radius A [ang],Radius B [ang],Lowest distortion,Formation energy [eV/atom],Stability [eV/atom],Magnetic moment [mu_B],Volume per atom [A^3/atom],Band gap [eV],a [ang],b [ang],c [ang],alpha [deg],beta [deg],gamma [deg],Vacancy energy [eV/O atom]
SrCuO3,Sr,Cu,FALSE,not balanced,not balanced,1.44,0.68,orthorhombic,-1.547,0.071,-,11.296,0.000,5.424,5.435,7.662,90.0,90.0,90.0,-0.061
SrDyO3,Sr,Dy,FALSE,not balanced,not balanced,1.44,0.99,orthorhombic,-3.004,0.158,0.200,15.533,0.000,5.974,6.145,8.462,90.0,90.0,90.0,-0.448
SrErO3,Sr,Er,FALSE,not balanced,not balanced,1.44,0.89,orthorhombic,-3.036,0.151,0.200,15.222,0.000,5.936,6.101,8.406,90.0,90.0,90.0,-0.370
SrEuO3,Sr,Eu,FALSE,not balanced,not balanced,1.44,1.06,cubic,-2.133,0.521,0.037,15.520,0.000,4.265,4.265,4.265,90.0,90.0,90.0,-1.035
SrFeO3,Sr,Fe,FALSE,2,4,1.44,0.59,orthorhombic,-2.188,-0.015,0.808,11.449,0.000,5.447,5.454,7.707,90.0,90.0,90.0,1.378
SrGaO3,Sr,Ga,FALSE,not balanced,not balanced,1.44,0.62,cubic,-2.215,0.169,-,12.022,0.000,3.917,3.917,3.917,90.0,90.0,90.0,-0.172
SrGdO3,Sr,Gd,FALSE,not balanced,not balanced,1.44,0.94,orthorhombic,-2.967,0.166,0.200,15.863,0.000,6.005,6.188,8.537,90.0,90.0,90.0,-0.521
SrGeO3,Sr,Ge,FALSE,2,4,1.44,0.53,cubic,-2.434,0.143,-,11.292,0.308,3.836,3.836,3.836,90.0,90.0,90.0,4.097
SrHfO3,Sr,Hf,TRUE,2,4,1.44,0.71,orthorhombic,-3.653,0.000,0.000,13.589,4.430,5.751,5.792,8.159,90.0,90.0,90.0,6.856
SrHgO3,Sr,Hg,FALSE,not balanced,not balanced,1.44,1.11,orthorhombic,-1.314,0.196,-,15.005,0.000,5.934,6.607,7.655,90.0,90.0,90.0,-0.562
SrHoO3,Sr,Ho,FALSE,not balanced,not balanced,1.44,0.90,orthorhombic,-3.020,0.153,0.200,15.378,0.000,5.952,6.124,8.438,90.0,90.0,90.0,-0.410
SrInO3,Sr,In,FALSE,not balanced,not balanced,1.44,0.80,orthorhombic,-2.013,0.182,-,14.220,0.000,5.836,5.912,8.242,90.0,90.0,90.0,-0.561
SrIrO3,Sr,Ir,TRUE,2,4,1.44,0.63,orthorhombic,-1.838,0.025,0.048,12.424,0.000,5.550,5.674,7.891,90.0,90.0,90.0,1.995
SrKO3,Sr,K,FALSE,not balanced,not balanced,1.44,1.38,cubic,-0.607,1.220,-,16.165,0.000,4.324,4.324,4.324,90.0,90.0,90.0,-3.240
SrLaO3,Sr,La,FALSE,not balanced,not balanced,1.44,1.03,orthorhombic,-2.923,0.170,0.200,17.059,0.000,6.108,6.348,8.798,90.0,90.0,90.0,-0.358
SrLiO3,Sr,Li,FALSE,not balanced,not balanced,1.44,0.76,cubic,-1.408,0.536,-,10.996,0.000,3.802,3.802,3.802,90.0,90.0,90.0,-1.469
SrLuO3,Sr,Lu,FALSE,not balanced,not balanced,1.44,0.86,orthorhombic,-3.083,0.135,0.200,14.746,0.000,5.862,6.030,8.343,90.0,90.0,90.0,-0.142
SrMgO3,Sr,Mg,FALSE,not balanced,not balanced,1.44,0.72,orthorhombic,-2.132,0.342,-,12.394,0.000,5.219,5.949,7.984,90.0,90.0,90.0,-0.975
SrMnO3,Sr,Mn,TRUE,2,4,1.44,0.53,orthorhombic,-2.368,0.041,0.600,11.380,0.000,5.425,5.446,7.703,90.0,90.0,90.0,1.412
SrMoO3,Sr,Mo,TRUE,2,4,1.44,0.65,orthorhombic,-2.611,0.026,0.001,12.645,0.000,5.632,5.635,7.968,90.0,90.0,90.0,5.296
SrNaO3,Sr,Na,FALSE,not balanced,not balanced,1.44,1.02,cubic,-0.994,0.835,-,13.882,0.000,4.110,4.110,4.110,90.0,90.0,90.0,-2.302
SrNbO3,Sr,Nb,TRUE,2,4,1.44,0.68,orthorhombic,-3.022,-0.011,0.000,13.268,0.000,5.710,5.732,8.108,90.0,90.0,90.0,5.907
SrNdO3,Sr,Nd,FALSE,not balanced,not balanced,1.44,0.98,orthorhombic,-2.865,0.186,0.200,16.743,0.000,6.095,6.303,8.717,90.0,90.0,90.0,-0.671
SrNiO3,Sr,Ni,FALSE,2,4,1.44,0.48,orthorhombic,-1.665,0.127,0.001,11.363,0.000,5.434,5.442,7.686,90.0,90.0,90.0,0.190
SrNpO3,Sr,Np,FALSE,element not in BV,element not in BV,1.44,0.86,orthorhombic,-3.418,-0.014,0.600,16.005,2.600,6.008,6.182,8.619,90.0,90.0,90.0,-
SrOsO3,Sr,Os,FALSE,element not in BV,element not in BV,1.44,0.57,orthorhombic,-1.941,-0.067,0.196,12.350,0.000,5.588,5.598,7.897,90.0,90.0,90.0,3.325
SrPaO3,Sr,Pa,FALSE,element not in BV,element not in BV,1.44,0.91,orthorhombic,-3.180,-0.144,0.200,16.648,2.529,6.087,6.268,8.727,90.0,90.0,90.0,5.517
SrPbO3,Sr,Pb,TRUE,2,4,1.44,0.78,orthorhombic,-1.995,-0.043,-,14.902,1.042,5.881,6.041,8.389,90.0,90.0,90.0,1.780
SrPdO3,Sr,Pd,FALSE,2,4,1.44,0.62,orthorhombic,-1.636,-0.058,-,12.586,0.299,5.588,5.683,7.927,90.0,90.0,90.0,0.177
SrPmO3,Sr,Pm,FALSE,element not in BV,element not in BV,1.44,0.97,orthorhombic,-2.897,0.178,0.200,16.476,0.000,6.066,6.266,8.670,90.0,90.0,90.0,-0.597
SrPrO3,Sr,Pr,FALSE,2,4,1.44,0.85,orthorhombic,-2.838,0.187,0.200,16.993,0.000,6.110,6.342,8.771,90.0,90.0,90.0,-0.673
SrPtO3,Sr,Pt,FALSE,element not in BV,element not in BV,1.44,0.67,orthorhombic,-1.708,-0.013,0.000,12.705,0.616,5.595,5.719,7.942,90.0,90.0,90.0,0.713
SrPuO3,Sr,Pu,TRUE,element not in BV,element not in BV,1.44,0.83,orthorhombic,-3.330,-0.179,0.800,15.748,1.949,5.979,6.147,8.570,90.0,90.0,90.0,3.783
SrRbO3,Sr,Rb,FALSE,not balanced,not balanced,1.44,1.52,cubic,-0.615,1.199,-,16.385,0.000,4.343,4.343,4.343,90.0,90.0,90.0,-2.490
SrReO3,Sr,Re,FALSE,2,4,1.44,0.63,rhombohedral,-2.232,0.119,0.006,12.456,0.000,5.590,5.590,5.590,60.4,60.4,60.4,4.409
SrRhO3,Sr,Rh,FALSE,2,4,1.44,0.60,orthorhombic,-1.856,-0.006,0.200,12.330,0.000,5.553,5.635,7.882,90.0,90.0,90.0,1.774
SrRuO3,Sr,Ru,TRUE,2,4,1.44,0.62,orthorhombic,-2.024,-0.013,0.396,12.293,0.000,5.574,5.586,7.896,90.0,90.0,90.0,3.136
SrSbO3,Sr,Sb,FALSE,not balanced,not balanced,1.44,0.68,orthorhombic,-2.268,0.078,-,14.308,0.000,5.825,5.923,8.295,90.0,90.0,90.0,2.819
SrScO3,Sr,Sc,FALSE,not balanced,not balanced,1.44,0.75,orthorhombic,-3.050,0.091,0.200,13.599,0.000,5.743,5.813,8.148,90.0,90.0,90.0,-0.088
SrSiO3,Sr,Si,FALSE,2,4,1.44,0.40,tetragonal,-2.989,0.287,-,11.198,2.148,3.465,3.465,4.662,90.0,90.0,90.0,6.066
SrSmO3,Sr,Sm,FALSE,not balanced,not balanced,1.44,0.96,orthorhombic,-2.912,0.175,0.200,16.302,0.000,6.051,6.246,8.627,90.0,90.0,90.0,-0.583
SrSnO3,Sr,Sn,TRUE,2,4,1.44,0.69,orthorhombic,-2.495,-0.042,-,13.439,2.116,5.733,5.766,8.131,90.0,90.0,90.0,3.937
Sr2O3,Sr,Sr,FALSE,not balanced,not balanced,1.44,1.18,cubic,-1.738,0.735,-,17.697,0.000,4.456,4.456,4.456,90.0,90.0,90.0,-1.979
SrTaO3,Sr,Ta,FALSE,2,4,1.44,0.68,orthorhombic,-3.121,0.044,0.000,13.110,0.000,5.691,5.703,8.078,90.0,90.0,90.0,6.161
SrTbO3,Sr,Tb,FALSE,2,4,1.44,0.76,orthorhombic,-2.854,0.163,0.200,15.685,0.000,5.979,6.167,8.507,90.0,90.0,90.0,-0.493
SrTcO3,Sr,Tc,FALSE,element not in BV,element not in BV,1.44,0.60,orthorhombic,-2.295,-0.097,0.254,12.379,0.000,5.587,5.596,7.918,90.0,90.0,90.0,4.148
SrTeO3,Sr,Te,FALSE,2,4,1.44,0.97,rhombohedral,-2.018,0.193,-,14.971,0.441,5.926,5.926,5.926,60.8,60.8,60.8,3.152
SrThO3,Sr,Th,FALSE,2,4,1.44,0.94,orthorhombic,-3.649,0.071,0.000,17.178,4.252,6.145,6.331,8.831,90.0,90.0,90.0,5.721
SrTiO3,Sr,Ti,TRUE,2,4,1.44,0.61,rhombohedral,-3.354,-0.046,0.000,12.003,2.009,5.533,5.533,5.533,60.1,60.1,60.1,5.504
SrTlO3,Sr,Tl,FALSE,not balanced,not balanced,1.44,1.20,orthorhombic,-1.580,0.163,-,15.014,0.000,5.874,6.131,8.338,90.0,90.0,90.0,-0.670
SrTmO3,Sr,Tm,FALSE,not balanced,not balanced,1.44,0.96,orthorhombic,-3.059,0.146,0.200,15.041,0.000,5.912,6.079,8.370,90.0,90.0,90.0,-0.296
SrUO3,Sr,U,TRUE,2,4,1.44,0.89,orthorhombic,-3.487,-0.018,0.400,16.258,2.645,6.026,6.228,8.664,90.0,90.0,90.0,5.193
SrVO3,Sr,V,TRUE,2,4,1.44,0.58,orthorhombic,-2.882,-0.002,0.200,11.693,0.000,5.437,5.441,7.904,90.0,90.0,90.0,3.786
SrWO3,Sr,W,FALSE,2,4,1.44,0.66,cubic,-2.596,0.149,0.000,12.736,0.000,3.993,3.993,3.993,90.0,90.0,90.0,5.437
SrYO3,Sr,Y,FALSE,not balanced,not balanced,1.44,0.90,orthorhombic,-2.979,0.161,0.200,15.653,0.000,6.007,6.188,8.423,90.0,90.0,90.0,-0.576
SrYbO3,Sr,Yb,FALSE,not balanced,not balanced,1.44,0.95,orthorhombic,-2.491,0.208,-,14.918,2.625,6.401,6.586,7.077,90.0,90.0,90.0,-0.984
SrZnO3,Sr,Zn,FALSE,not balanced,not balanced,1.44,0.74,orthorhombic,-1.706,0.250,-,12.088,0.000,5.545,5.550,7.855,90.0,90.0,90.0,-0.611
SrZrO3,Sr,Zr,TRUE,2,4,1.44,0.72,orthorhombic,-3.502,-0.081,0.000,13.995,3.938,5.797,5.863,8.234,90.0,90.0,90.0,-
TaAcO3,Ta,Ac,FALSE,element not in BV,element not in BV,0.74,1.12,rhombohedral,-2.889,0.216,0.000,17.361,1.223,6.155,6.155,6.155,62.4,62.4,62.4,-6.053
TaAgO3,Ta,Ag,FALSE,not balanced,not balanced,0.74,0.95,orthorhombic,-2.019,0.246,0.000,14.157,1.609,5.492,5.917,8.713,90.0,90.0,90.0,-11.587
TaAlO3,Ta,Al,FALSE,not balanced,not balanced,0.74,0.54,cubic,-1.936,1.036,0.334,9.578,0.000,3.631,3.631,3.631,90.0,90.0,90.0,3.961
TaAsO3,Ta,As,FALSE,not balanced,not balanced,0.74,0.52,cubic,-0.383,2.049,0.513,12.017,0.000,3.917,3.917,3.917,90.0,90.0,90.0,-0.797
TaAuO3,Ta,Au,FALSE,element not in BV,element not in BV,0.74,0.93,cubic,0.335,2.573,0.420,13.367,0.000,4.058,4.058,4.058,90.0,90.0,90.0,-8.366
TaBO3,Ta,B,FALSE,4,2,0.68,0.27,cubic,-1.101,1.649,0.086,7.765,0.000,3.386,3.386,3.386,90.0,90.0,90.0,1.296
TaBaO3,Ta,Ba,FALSE,not balanced,not balanced,0.74,1.35,orthorhombic,-2.791,0.359,-0.001,17.807,0.304,5.529,6.608,9.748,90.0,90.0,90.0,-3.556
TaBeO3,Ta,Be,FALSE,4,2,0.68,0.45,cubic,-1.946,0.993,0.001,7.821,0.000,3.394,3.394,3.394,90.0,90.0,90.0,3.022
TaBiO3,Ta,Bi,FALSE,1,5,0.74,0.76,cubic,-0.046,2.423,0.580,15.692,0.000,4.281,4.281,4.281,90.0,90.0,90.0,-5.978
TaCaO3,Ta,Ca,FALSE,not balanced,not balanced,0.74,1.00,rhombohedral,-2.781,0.395,0.200,14.622,0.000,5.996,5.996,5.996,58.2,58.2,58.2,-
TaCdO3,Ta,Cd,FALSE,not balanced,not balanced,0.74,0.95,orthorhombic,-2.001,0.480,0.000,12.766,0.000,5.622,6.378,7.121,90.0,90.0,90.0,-12.014
TaCeO3,Ta,Ce,FALSE,2,4,0.74,0.87,cubic,-0.711,2.478,0.396,18.308,0.000,4.507,4.507,4.507,90.0,90.0,90.0,-13.220
TaCoO3,Ta,Co,FALSE,2,4,0.74,0.53,cubic,-0.878,1.600,-0.112,9.555,0.000,3.629,3.629,3.629,90.0,90.0,90.0,-0.411
TaCrO3,Ta,Cr,FALSE,1,5,0.74,0.49,orthorhombic,-2.330,0.332,0.599,10.669,0.000,5.225,6.038,6.765,90.0,90.0,90.0,-2.758
TaCsO3,Ta,Cs,FALSE,not balanced,not balanced,0.74,1.67,rhombohedral,-2.037,0.808,0.000,23.800,1.439,7.021,7.021,7.021,58.8,58.8,58.8,-
TaCuO3,Ta,Cu,FALSE,not balanced,not balanced,0.74,0.68,orthorhombic,-2.181,0.216,0.000,11.068,0.000,4.832,5.157,8.882,90.0,90.0,90.0,-1.882
TaDyO3,Ta,Dy,FALSE,not balanced,not balanced,0.74,0.99,cubic,-1.295,2.033,0.399,15.203,0.000,4.236,4.236,4.236,90.0,90.0,90.0,-9.365
TaErO3,Ta,Er,FALSE,not balanced,not balanced,0.74,0.89,cubic,-1.398,1.944,0.399,14.694,0.000,4.188,4.188,4.188,90.0,90.0,90.0,-8.576
TaEuO3,Ta,Eu,FALSE,not balanced,not balanced,0.74,1.06,orthorhombic,-2.955,0.394,-0.002,13.999,0.000,5.600,6.202,8.061,90.0,90.0,90.0,-16.488
TaFeO3,Ta,Fe,FALSE,2,4,0.74,0.59,cubic,-0.862,1.698,1.261,10.777,0.000,3.777,3.777,3.777,90.0,90.0,90.0,-4.452
TaGaO3,Ta,Ga,FALSE,not balanced,not balanced,0.74,0.62,orthorhombic,-2.109,0.432,0.000,13.193,0.000,6.130,6.396,6.729,90.0,90.0,90.0,1.424
TaGdO3,Ta,Gd,FALSE,not balanced,not balanced,0.74,0.94,cubic,-1.179,2.130,0.398,15.797,0.000,4.291,4.291,4.291,90.0,90.0,90.0,-10.218
TaGeO3,Ta,Ge,FALSE,2,4,0.74,0.53,cubic,-0.758,1.717,0.533,10.960,0.000,3.798,3.798,3.798,90.0,90.0,90.0,0.270
TaHfO3,Ta,Hf,FALSE,2,4,0.74,0.71,cubic,-1.814,1.366,0.594,13.342,0.000,4.056,4.056,4.056,90.0,90.0,90.0,-3.616
TaHgO3,Ta,Hg,FALSE,not balanced,not balanced,0.74,1.11,orthorhombic,-1.903,0.379,0.000,16.518,0.000,5.517,6.317,9.480,90.0,90.0,90.0,-8.894
TaHoO3,Ta,Ho,FALSE,not balanced,not balanced,0.74,0.90,cubic,-1.348,1.991,0.399,14.928,0.000,4.210,4.210,4.210,90.0,90.0,90.0,-8.960
TaInO3,Ta,In,FALSE,not balanced,not balanced,0.74,0.80,rhombohedral,-1.849,0.665,0.000,13.199,0.000,5.415,5.415,5.415,68.3,68.3,68.3,-
TaIrO3,Ta,Ir,FALSE,1,5,0.74,0.57,cubic,-0.109,2.242,0.339,11.992,0.000,3.914,3.914,3.914,90.0,90.0,90.0,-7.068
TaKO3,Ta,K,FALSE,not balanced,not balanced,0.74,1.38,orthorhombic,-2.684,0.236,0.000,17.643,3.635,5.769,5.851,10.454,90.0,90.0,90.0,-21.785
TaLaO3,Ta,La,FALSE,not balanced,not balanced,0.74,1.03,cubic,-0.839,2.464,0.397,17.927,0.000,4.475,4.475,4.475,90.0,90.0,90.0,-12.769
TaLiO3,Ta,Li,FALSE,not balanced,not balanced,0.74,0.76,orthorhombic,-2.828,0.138,0.000,9.486,2.991,4.748,5.105,7.828,90.0,90.0,90.0,-2.440
TaLuO3,Ta,Lu,FALSE,not balanced,not balanced,0.74,0.86,cubic,-1.546,1.814,0.399,13.976,0.000,4.119,4.119,4.119,90.0,90.0,90.0,-7.371
TaMgO3,Ta,Mg,FALSE,not balanced,not balanced,0.74,0.72,cubic,-1.513,1.481,0.073,9.856,0.000,3.666,3.666,3.666,90.0,90.0,90.0,-3.104
TaMnO3,Ta,Mn,FALSE,2,4,0.74,0.53,cubic,-1.071,1.599,1.164,10.902,0.000,3.792,3.792,3.792,90.0,90.0,90.0,-5.179
TaMoO3,Ta,Mo,FALSE,1,5,0.74,0.61,cubic,-0.874,1.640,0.520,12.056,0.000,3.921,3.921,3.921,90.0,90.0,90.0,-2.235
TaNaO3,Ta,Na,FALSE,not balanced,not balanced,0.74,1.02,orthorhombic,-2.633,0.298,0.000,12.859,2.958,5.468,5.632,8.351,90.0,90.0,90.0,-11.349
TaNbO3,Ta,Nb,FALSE,1,5,0.74,0.64,cubic,-1.255,1.367,0.588,12.854,0.000,4.006,4.006,4.006,90.0,90.0,90.0,-0.321
TaNdO3,Ta,Nd,FALSE,not balanced,not balanced,0.74,0.98,cubic,-0.881,2.371,0.400,17.377,0.000,4.429,4.429,4.429,90.0,90.0,90.0,-12.189
TaNiO3,Ta,Ni,FALSE,2,4,0.74,0.48,cubic,-0.846,1.629,0.488,9.797,0.000,3.659,3.659,3.659,90.0,90.0,90.0,-0.846
TaNpO3,Ta,Np,FALSE,element not in BV,element not in BV,0.74,0.86,rhombohedral,-2.790,0.313,0.800,15.290,0.550,5.749,5.749,5.749,66.4,66.4,66.4,-0.811
TaOsO3,Ta,Os,FALSE,element not in BV,element not in BV,0.74,0.57,cubic,-0.224,2.141,0.238,11.821,0.000,3.895,3.895,3.895,90.0,90.0,90.0,-6.274
TaPaO3,Ta,Pa,FALSE,element not in BV,element not in BV,0.74,0.91,cubic,-1.248,1.488,0.771,16.707,0.000,4.371,4.371,4.371,90.0,90.0,90.0,0.234
TaPbO3,Ta,Pb,FALSE,2,4,0.74,0.78,rhombohedral,-1.911,0.544,0.000,15.337,0.000,5.603,5.603,5.603,71.4,71.4,71.4,-1.098
TaPdO3,Ta,Pd,FALSE,2,4,0.74,0.62,cubic,-0.130,2.191,0.338,12.087,0.000,3.924,3.924,3.924,90.0,90.0,90.0,-5.715
TaPmO3,Ta,Pm,FALSE,element not in BV,element not in BV,0.74,0.97,cubic,-0.970,2.183,0.398,16.902,0.000,4.388,4.388,4.388,90.0,90.0,90.0,-11.636
TaPrO3,Ta,Pr,FALSE,2,4,0.74,0.85,cubic,-0.801,2.424,0.397,17.812,0.000,4.466,4.466,4.466,90.0,90.0,90.0,-12.693
TaPtO3,Ta,Pt,FALSE,element not in BV,element not in BV,0.74,0.67,cubic,0.037,2.347,0.388,12.590,0.000,3.978,3.978,3.978,90.0,90.0,90.0,-8.016
TaPuO3,Ta,Pu,FALSE,element not in BV,element not in BV,0.74,0.83,rhombohedral,-2.830,0.301,1.000,15.116,0.779,5.716,5.716,5.716,66.7,66.7,66.7,-8.643
TaRbO3,Ta,Rb,FALSE,not balanced,not balanced,0.74,1.52,orthorhombic,-2.689,0.183,0.000,19.597,3.593,5.930,5.984,11.045,90.0,90.0,90.0,-14.916
TaReO3,Ta,Re,FALSE,1,5,0.74,0.58,cubic,-0.503,1.945,0.403,11.968,0.000,3.911,3.911,3.911,90.0,90.0,90.0,-4.977
TaRhO3,Ta,Rh,FALSE,2,4,0.74,0.60,cubic,-0.310,2.037,0.304,11.667,0.000,3.878,3.878,3.878,90.0,90.0,90.0,-4.987
TaRuO3,Ta,Ru,FALSE,1,5,0.74,0.57,cubic,-0.406,1.975,0.188,11.543,0.000,3.865,3.865,3.865,90.0,90.0,90.0,-4.611
TaSbO3,Ta,Sb,FALSE,1,5,0.74,0.60,cubic,-0.340,2.114,0.626,13.811,0.000,4.103,4.103,4.103,90.0,90.0,90.0,-5.239
TaScO3,Ta,Sc,FALSE,not balanced,not balanced,0.74,0.75,cubic,-1.730,1.532,0.400,12.311,0.000,3.948,3.948,3.948,90.0,90.0,90.0,-5.103
TaSiO3,Ta,Si,FALSE,2,4,0.74,0.40,cubic,-1.291,1.487,0.518,9.427,0.000,3.612,3.612,3.612,90.0,90.0,90.0,1.802
TaSmO3,Ta,Sm,FALSE,not balanced,not balanced,0.74,0.96,cubic,-1.025,2.258,0.400,16.582,0.000,4.360,4.360,4.360,90.0,90.0,90.0,-11.247
TaSnO3,Ta,Sn,FALSE,2,4,0.74,0.69,cubic,-0.628,1.903,0.578,13.115,0.000,4.033,4.033,4.033,90.0,90.0,90.0,-2.986
TaSrO3,Ta,Sr,FALSE,not balanced,not balanced,0.74,1.18,orthorhombic,-2.801,0.365,0.000,15.651,0.310,5.577,6.314,8.889,90.0,90.0,90.0,-17.169
Ta2O3,Ta,Ta,FALSE,not balanced,not balanced,0.74,0.68,cubic,-1.403,1.226,0.614,12.673,0.000,3.987,3.987,3.987,90.0,90.0,90.0,0.136
TaTbO3,Ta,Tb,FALSE,2,4,0.74,0.76,cubic,-1.108,2.084,0.399,15.490,0.000,4.263,4.263,4.263,90.0,90.0,90.0,-9.755
TaTcO3,Ta,Tc,FALSE,element not in BV,element not in BV,0.74,0.60,cubic,-0.606,1.840,0.146,11.719,0.000,3.884,3.884,3.884,90.0,90.0,90.0,-4.035
TaTeO3,Ta,Te,FALSE,2,4,0.74,0.97,cubic,-0.061,2.329,0.602,14.572,0.000,4.177,4.177,4.177,90.0,90.0,90.0,-6.409
TaThO3,Ta,Th,FALSE,2,4,0.74,0.94,cubic,-1.460,1.965,0.589,18.552,0.000,4.527,4.527,4.527,90.0,90.0,90.0,-1.362
TaTiO3,Ta,Ti,FALSE,2,4,0.74,0.61,cubic,-1.708,1.168,0.468,11.319,0.000,3.839,3.839,3.839,90.0,90.0,90.0,-3.211
TaTlO3,Ta,Tl,FALSE,not balanced,not balanced,0.74,1.20,orthorhombic,-2.274,0.183,0.000,18.318,2.480,5.884,6.333,9.831,90.0,90.0,90.0,-7.196
TaTmO3,Ta,Tm,FALSE,not balanced,not balanced,0.74,0.96,cubic,-1.461,1.897,0.399,14.408,0.000,4.161,4.161,4.161,90.0,90.0,90.0,-8.045
TaUO3,Ta,U,FALSE,1,5,0.74,0.76,cubic,-1.439,1.729,0.966,16.160,0.000,4.323,4.323,4.323,90.0,90.0,90.0,0.396
TaVO3,Ta,V,FALSE,2,4,0.74,0.58,cubic,-1.347,1.388,0.773,11.017,0.000,3.805,3.805,3.805,90.0,90.0,90.0,1.145
TaWO3,Ta,W,FALSE,1,5,0.74,0.62,cubic,-0.874,1.643,0.560,12.172,0.000,3.933,3.933,3.933,90.0,90.0,90.0,-0.910
TaYO3,Ta,Y,FALSE,not balanced,not balanced,0.74,0.90,cubic,-1.271,2.034,0.398,15.201,0.000,4.236,4.236,4.236,90.0,90.0,90.0,-9.407
TaYbO3,Ta,Yb,FALSE,not balanced,not balanced,0.74,0.95,orthorhombic,-2.943,0.306,-0.001,12.853,0.000,5.536,5.995,7.745,90.0,90.0,90.0,-12.815
TaZnO3,Ta,Zn,FALSE,not balanced,not balanced,0.74,0.74,cubic,-0.727,1.803,0.218,10.663,0.000,3.764,3.764,3.764,90.0,90.0,90.0,-5.628
TaZrO3,Ta,Zr,FALSE,2,4,0.74,0.72,cubic,-1.620,1.436,0.594,13.872,0.000,4.109,4.109,4.109,90.0,90.0,90.0,0.504
TbAcO3,Tb,Ac,FALSE,element not in BV,element not in BV,1.10,1.12,cubic,-2.061,1.509,0.001,20.243,0.000,4.660,4.660,4.660,90.0,90.0,90.0,0.939
TbAgO3,Tb,Ag,FALSE,not balanced,not balanced,1.10,0.95,cubic,-1.327,0.566,0.000,12.985,0.000,4.019,4.019,4.019,90.0,90.0,90.0,-0.487
TbAlO3,Tb,Al,TRUE,3,3,1.10,0.54,orthorhombic,-3.448,-0.020,0.000,10.267,5.845,5.198,5.336,7.404,90.0,90.0,90.0,6.336
TbAsO3,Tb,As,FALSE,3,3,1.10,0.58,cubic,-1.802,0.748,0.000,12.745,0.000,3.994,3.994,3.994,90.0,90.0,90.0,2.202
TbAuO3,Tb,Au,FALSE,element not in BV,element not in BV,1.10,0.93,cubic,-1.189,0.732,0.000,13.734,0.000,4.095,4.095,4.095,90.0,90.0,90.0,-0.603
TbBO3,Tb,B,FALSE,4,2,0.88,0.27,cubic,-2.390,0.759,0.000,8.318,2.961,3.465,3.465,3.465,90.0,90.0,90.0,5.397
TbBaO3,Tb,Ba,FALSE,4,2,0.88,1.35,orthorhombic,-2.690,0.271,0.201,18.699,0.640,6.500,6.766,8.504,90.0,90.0,90.0,-6.725
TbBeO3,Tb,Be,FALSE,4,2,0.88,0.45,tetragonal,-2.663,0.304,0.044,9.596,0.000,3.326,3.326,4.337,90.0,90.0,90.0,-0.866
TbBiO3,Tb,Bi,FALSE,1,5,1.10,0.76,cubic,-1.418,1.099,0.000,16.631,0.000,4.365,4.365,4.365,90.0,90.0,90.0,0.902
TbCaO3,Tb,Ca,FALSE,4,2,0.88,1.00,cubic,-2.043,1.028,0.200,13.791,0.000,4.101,4.101,4.101,90.0,90.0,90.0,-2.782
TbCdO3,Tb,Cd,FALSE,4,2,0.88,0.95,cubic,-1.494,0.781,0.000,13.689,0.000,4.091,4.091,4.091,90.0,90.0,90.0,-0.941
TbCeO3,Tb,Ce,FALSE,2,4,1.10,0.87,cubic,-2.207,1.333,0.000,18.667,0.308,4.536,4.536,4.536,90.0,90.0,90.0,-2.959
TbCoO3,Tb,Co,TRUE,3,3,1.10,0.61,orthorhombic,-2.398,0.009,0.401,10.841,0.000,5.200,5.551,7.512,90.0,90.0,90.0,2.511
TbCrO3,Tb,Cr,TRUE,3,3,1.10,0.62,orthorhombic,-3.064,-0.043,0.600,11.209,2.475,5.286,5.578,7.603,90.0,90.0,90.0,4.313
TbCsO3,Tb,Cs,FALSE,not balanced,not balanced,1.10,1.67,-,-,-,-,-,-,-,-,-,-,-,-,-
TbCuO3,Tb,Cu,FALSE,3,3,1.10,0.54,orthorhombic,-2.142,-0.040,0.000,11.072,0.000,5.230,5.858,7.228,90.0,90.0,90.0,0.770
TbDyO3,Tb,Dy,FALSE,4,2,0.88,1.07,cubic,-2.802,0.903,0.000,15.489,1.746,4.263,4.263,4.263,90.0,90.0,90.0,1.148
TbErO3,Tb,Er,FALSE,not balanced,not balanced,1.10,0.89,cubic,-2.902,0.827,0.000,14.970,1.887,4.214,4.214,4.214,90.0,90.0,90.0,4.277
TbEuO3,Tb,Eu,FALSE,not balanced,not balanced,1.10,1.06,cubic,-2.030,1.108,0.108,15.402,0.000,4.254,4.254,4.254,90.0,90.0,90.0,-2.201
TbFeO3,Tb,Fe,TRUE,3,3,1.10,0.65,orthorhombic,-2.644,-0.039,1.000,11.338,1.168,5.301,5.607,7.629,90.0,90.0,90.0,3.264
TbGaO3,Tb,Ga,FALSE,3,3,1.10,0.62,orthorhombic,-2.833,0.015,0.000,11.149,3.981,5.285,5.562,7.586,90.0,90.0,90.0,4.521
TbGdO3,Tb,Gd,FALSE,not balanced,not balanced,1.10,0.94,cubic,-2.688,0.989,0.000,16.070,1.489,4.315,4.315,4.315,90.0,90.0,90.0,0.370
TbGeO3,Tb,Ge,FALSE,2,4,1.10,0.53,cubic,-2.107,0.523,0.000,11.618,0.000,3.873,3.873,3.873,90.0,90.0,90.0,2.859
TbHfO3,Tb,Hf,FALSE,2,4,1.10,0.71,orthorhombic,-3.308,0.200,0.003,12.510,0.000,5.474,6.064,7.538,90.0,90.0,90.0,4.589
TbHgO3,Tb,Hg,FALSE,4,2,0.88,1.02,cubic,-1.075,0.887,0.000,14.671,0.000,4.186,4.186,4.186,90.0,90.0,90.0,-0.904