Chemical formula,A,B,In literature,Valence A,Valence B,Radius A [ang],Radius B [ang],Lowest distortion,Formation energy [eV/atom],Stability [eV/atom],Magnetic moment [mu_B],Volume per atom [A^3/atom],Band gap [eV],a [ang],b [ang],c [ang],alpha [deg],beta [deg],gamma [deg],Vacancy energy [eV/O atom]
DyZrO3,Dy,Zr,FALSE,2,4,1.19,0.72,cubic,-2.962,0.607,0.000,14.002,0.000,4.122,4.122,4.122,90.0,90.0,90.0,4.153
ErAcO3,Er,Ac,FALSE,element not in BV,element not in BV,1.06,1.12,orthorhombic,-3.539,0.209,0.000,17.048,3.463,6.095,6.240,8.964,90.0,90.0,90.0,0.520
ErAgO3,Er,Ag,FALSE,3,3,1.06,0.75,cubic,-1.379,0.682,0.000,12.853,0.000,4.006,4.006,4.006,90.0,90.0,90.0,-0.743
ErAlO3,Er,Al,TRUE,3,3,1.06,0.54,orthorhombic,-3.602,-0.022,0.000,10.062,6.221,5.131,5.341,7.343,90.0,90.0,90.0,6.255
ErAsO3,Er,As,FALSE,3,3,1.06,0.58,cubic,-1.854,0.817,0.000,12.618,0.000,3.981,3.981,3.981,90.0,90.0,90.0,2.013
ErAuO3,Er,Au,FALSE,element not in BV,element not in BV,1.06,0.93,cubic,-1.236,0.853,0.000,13.633,0.000,4.085,4.085,4.085,90.0,90.0,90.0,-0.826
ErBO3,Er,B,FALSE,3,3,1.06,0.27,cubic,-2.530,0.812,0.000,8.096,3.096,3.434,3.434,3.434,90.0,90.0,90.0,5.502
ErBaO3,Er,Ba,FALSE,not balanced,not balanced,1.06,1.35,orthorhombic,-2.848,0.276,0.200,18.174,0.641,6.465,6.767,8.309,90.0,90.0,90.0,-8.217
ErBeO3,Er,Be,FALSE,not balanced,not balanced,1.06,0.45,tetragonal,-2.807,0.328,0.035,9.389,0.000,3.287,3.287,4.345,90.0,90.0,90.0,-1.100
ErBiO3,Er,Bi,FALSE,3,3,1.06,1.03,cubic,-1.460,1.225,0.000,16.569,0.000,4.359,4.359,4.359,90.0,90.0,90.0,0.529
ErCaO3,Er,Ca,FALSE,not balanced,not balanced,1.06,1.00,cubic,-2.099,1.140,0.200,13.969,0.000,4.118,4.118,4.118,90.0,90.0,90.0,-3.043
ErCdO3,Er,Cd,FALSE,not balanced,not balanced,1.06,0.95,cubic,-1.542,0.900,0.000,13.588,0.000,4.080,4.080,4.080,90.0,90.0,90.0,-1.207
ErCeO3,Er,Ce,FALSE,3,3,1.06,1.01,cubic,-2.242,1.466,0.000,18.584,0.000,4.529,4.529,4.529,90.0,90.0,90.0,-3.532
ErCoO3,Er,Co,FALSE,3,3,1.06,0.61,orthorhombic,-2.551,0.024,0.000,10.601,1.392,5.144,5.549,7.428,90.0,90.0,90.0,2.225
ErCrO3,Er,Cr,TRUE,3,3,1.06,0.62,orthorhombic,-3.217,-0.028,0.600,10.953,2.462,5.230,5.551,7.545,90.0,90.0,90.0,4.120
ErCsO3,Er,Cs,FALSE,not balanced,not balanced,1.06,1.67,orthorhombic,-1.960,0.552,0.000,18.157,0.361,5.074,6.003,11.921,90.0,90.0,90.0,-
ErCuO3,Er,Cu,FALSE,3,3,1.06,0.54,orthorhombic,-2.296,0.052,0.000,10.810,0.269,5.179,5.849,7.137,90.0,90.0,90.0,0.539
ErDyO3,Er,Dy,FALSE,3,3,1.06,0.91,cubic,-2.844,1.029,0.000,15.360,1.129,4.251,4.251,4.251,90.0,90.0,90.0,0.313
Er2O3,Er,Er,FALSE,3,3,1.06,0.89,cubic,-2.947,0.949,0.000,14.923,1.559,4.210,4.210,4.210,90.0,90.0,90.0,1.088
ErEuO3,Er,Eu,FALSE,3,3,1.06,0.95,cubic,-2.070,1.237,0.097,15.316,0.000,4.247,4.247,4.247,90.0,90.0,90.0,-2.260
ErFeO3,Er,Fe,TRUE,3,3,1.06,0.65,orthorhombic,-2.795,-0.021,1.000,11.088,1.224,5.246,5.578,7.578,90.0,90.0,90.0,-
ErGaO3,Er,Ga,FALSE,3,3,1.06,0.62,orthorhombic,-2.985,0.021,0.000,10.892,4.076,5.225,5.544,7.520,90.0,90.0,90.0,4.343
ErGdO3,Er,Gd,FALSE,3,3,1.06,0.94,cubic,-2.729,1.116,0.000,16.005,0.817,4.309,4.309,4.309,90.0,90.0,90.0,-0.434
ErGeO3,Er,Ge,FALSE,3,3,1.06,0.63,cubic,-2.171,0.628,0.000,11.493,0.000,3.859,3.859,3.859,90.0,90.0,90.0,2.685
ErHfO3,Er,Hf,FALSE,3,3,1.06,0.71,cubic,-3.081,0.595,0.000,13.445,0.000,4.066,4.066,4.066,90.0,90.0,90.0,4.399
ErHgO3,Er,Hg,FALSE,not balanced,not balanced,1.06,1.11,cubic,-1.117,1.013,0.000,14.573,0.000,4.177,4.177,4.177,90.0,90.0,90.0,-1.117
ErHoO3,Er,Ho,FALSE,3,3,1.06,0.90,cubic,-2.897,0.988,0.000,15.123,1.411,4.229,4.229,4.229,90.0,90.0,90.0,0.759
ErInO3,Er,In,FALSE,3,3,1.06,0.80,cubic,-2.095,0.775,0.000,13.618,1.406,4.083,4.083,4.083,90.0,90.0,90.0,2.577
ErIrO3,Er,Ir,FALSE,3,3,1.06,0.68,cubic,-1.595,0.832,0.000,12.250,0.000,3.942,3.942,3.942,90.0,90.0,90.0,-1.136
ErKO3,Er,K,FALSE,not balanced,not balanced,1.06,1.38,cubic,-0.661,1.874,-0.024,14.248,0.000,4.145,4.145,4.145,90.0,90.0,90.0,-4.104
ErLaO3,Er,La,FALSE,3,3,1.06,1.03,cubic,-2.364,1.440,0.000,18.281,0.000,4.505,4.505,4.505,90.0,90.0,90.0,1.788
ErLiO3,Er,Li,FALSE,not balanced,not balanced,1.06,0.76,cubic,-2.076,0.554,0.399,9.417,0.000,3.611,3.611,3.611,90.0,90.0,90.0,-1.487
ErLuO3,Er,Lu,FALSE,3,3,1.06,0.86,cubic,-3.092,0.837,0.000,14.189,0.987,4.140,4.140,4.140,90.0,90.0,90.0,2.182
ErMgO3,Er,Mg,FALSE,not balanced,not balanced,1.06,0.72,cubic,-2.572,0.564,0.201,10.891,0.000,3.790,3.790,3.790,90.0,90.0,90.0,-1.711
ErMnO3,Er,Mn,FALSE,3,3,1.06,0.65,orthorhombic,-2.971,0.036,0.800,11.143,0.273,5.243,5.699,7.457,90.0,90.0,90.0,3.370
ErMoO3,Er,Mo,FALSE,3,3,1.06,0.69,cubic,-2.225,0.693,0.005,12.292,0.000,3.946,3.946,3.946,90.0,90.0,90.0,1.409
ErNaO3,Er,Na,FALSE,not balanced,not balanced,1.06,1.02,cubic,-1.392,1.151,0.400,11.886,0.000,3.902,3.902,3.902,90.0,90.0,90.0,-3.038
ErNbO3,Er,Nb,FALSE,3,3,1.06,0.72,cubic,-2.547,0.685,0.000,12.992,0.000,4.020,4.020,4.020,90.0,90.0,90.0,2.890
ErNdO3,Er,Nd,FALSE,3,3,1.06,0.98,cubic,-2.424,1.334,0.000,17.560,0.000,4.445,4.445,4.445,90.0,90.0,90.0,-2.591
ErNiO3,Er,Ni,TRUE,3,3,1.06,0.60,orthorhombic,-2.422,0.023,0.200,10.367,0.000,5.116,5.532,7.326,90.0,90.0,90.0,0.935
ErNpO3,Er,Np,FALSE,element not in BV,element not in BV,1.06,0.86,cubic,-2.521,1.177,0.761,17.041,0.000,4.400,4.400,4.400,90.0,90.0,90.0,2.006
ErOsO3,Er,Os,FALSE,element not in BV,element not in BV,1.06,0.57,cubic,-1.641,0.830,0.008,12.128,0.000,3.929,3.929,3.929,90.0,90.0,90.0,-0.184
ErPaO3,Er,Pa,FALSE,element not in BV,element not in BV,1.06,0.91,cubic,-2.339,1.004,0.275,17.741,0.000,4.460,4.460,4.460,90.0,90.0,90.0,2.508
ErPbO3,Er,Pb,FALSE,not balanced,not balanced,1.06,0.99,cubic,-1.440,1.125,0.000,15.602,0.000,4.273,4.273,4.273,90.0,90.0,90.0,0.493
ErPdO3,Er,Pd,FALSE,not balanced,not balanced,1.06,0.75,cubic,-1.670,0.538,0.000,12.251,0.000,3.942,3.942,3.942,90.0,90.0,90.0,-0.261
ErPmO3,Er,Pm,FALSE,element not in BV,element not in BV,1.06,0.97,cubic,-2.515,1.271,0.000,17.070,0.344,4.403,4.403,4.403,90.0,90.0,90.0,-1.673
ErPrO3,Er,Pr,FALSE,3,3,1.06,0.99,cubic,-2.340,1.396,0.000,18.047,0.000,4.485,4.485,4.485,90.0,90.0,90.0,-2.930
ErPtO3,Er,Pt,FALSE,element not in BV,element not in BV,1.06,0.67,cubic,-1.502,0.794,0.000,12.825,0.000,4.003,4.003,4.003,90.0,90.0,90.0,-0.711
ErPuO3,Er,Pu,FALSE,element not in BV,element not in BV,1.06,0.83,cubic,-2.576,1.189,0.900,16.571,0.000,4.360,4.360,4.360,90.0,90.0,90.0,-0.961
ErRbO3,Er,Rb,FALSE,not balanced,not balanced,1.06,1.52,orthorhombic,-2.146,0.371,0.000,17.854,1.316,6.105,6.145,9.519,90.0,90.0,90.0,-3.596
ErReO3,Er,Re,FALSE,3,3,1.06,0.63,cubic,-1.852,0.865,0.161,12.220,0.000,3.939,3.939,3.939,90.0,90.0,90.0,-0.079
ErRhO3,Er,Rh,TRUE,3,3,1.06,0.67,cubic,-1.806,0.609,0.001,11.886,0.000,3.902,3.902,3.902,90.0,90.0,90.0,-0.384
ErRuO3,Er,Ru,FALSE,3,3,1.06,0.68,cubic,-1.860,0.658,0.133,11.897,0.000,3.904,3.904,3.904,90.0,90.0,90.0,0.413
ErSbO3,Er,Sb,FALSE,3,3,1.06,0.76,cubic,-1.678,1.060,0.000,14.796,0.000,4.198,4.198,4.198,90.0,90.0,90.0,0.530
ErScO3,Er,Sc,FALSE,3,3,1.06,0.75,cubic,-3.269,0.583,0.000,12.575,2.751,3.976,3.976,3.976,90.0,90.0,90.0,4.961
ErSiO3,Er,Si,FALSE,3,3,1.06,0.40,cubic,-2.610,0.795,0.001,9.830,0.000,3.663,3.663,3.663,90.0,90.0,90.0,4.497
ErSmO3,Er,Sm,FALSE,3,3,1.06,0.96,cubic,-2.573,1.226,0.000,16.759,0.533,4.376,4.376,4.376,90.0,90.0,90.0,-1.555
ErSnO3,Er,Sn,FALSE,not balanced,not balanced,1.06,0.69,cubic,-1.956,0.907,0.000,13.706,0.000,4.092,4.092,4.092,90.0,90.0,90.0,2.190
ErSrO3,Er,Sr,FALSE,not balanced,not balanced,1.06,1.18,orthorhombic,-2.886,0.300,0.200,15.856,0.000,5.898,5.936,9.057,90.0,90.0,90.0,-4.194
ErTaO3,Er,Ta,FALSE,3,3,1.06,0.72,cubic,-2.629,0.713,0.000,12.780,0.000,3.998,3.998,3.998,90.0,90.0,90.0,2.891
ErTbO3,Er,Tb,FALSE,3,3,1.06,0.92,cubic,-2.658,1.071,0.000,15.697,0.985,4.282,4.282,4.282,90.0,90.0,90.0,0.000
ErTcO3,Er,Tc,FALSE,element not in BV,element not in BV,1.06,0.60,cubic,-2.031,0.682,0.315,12.073,0.000,3.923,3.923,3.923,90.0,90.0,90.0,0.883
ErTeO3,Er,Te,FALSE,not balanced,not balanced,1.06,0.77,cubic,-1.368,1.205,0.004,15.123,0.000,4.229,4.229,4.229,90.0,90.0,90.0,0.615
ErThO3,Er,Th,FALSE,not balanced,not balanced,1.06,0.94,cubic,-2.732,1.123,0.024,18.856,0.000,4.551,4.551,4.551,90.0,90.0,90.0,1.975
ErTiO3,Er,Ti,TRUE,3,3,1.06,0.67,orthorhombic,-3.473,0.036,0.200,11.287,0.000,5.262,5.649,7.595,90.0,90.0,90.0,4.577
ErTlO3,Er,Tl,FALSE,3,3,1.06,0.89,cubic,-1.384,1.033,0.000,15.091,0.000,4.226,4.226,4.226,90.0,90.0,90.0,0.415
ErTmO3,Er,Tm,FALSE,3,3,1.06,0.88,cubic,-3.008,0.906,0.000,14.600,1.701,4.179,4.179,4.179,90.0,90.0,90.0,2.033
ErUO3,Er,U,FALSE,3,3,1.06,1.03,cubic,-2.528,1.139,0.527,16.835,0.000,4.383,4.383,4.383,90.0,90.0,90.0,1.558
ErVO3,Er,V,TRUE,3,3,1.06,0.64,orthorhombic,-3.282,-0.018,0.400,11.251,1.138,5.263,5.637,7.585,90.0,90.0,90.0,3.881
ErWO3,Er,W,FALSE,3,3,1.06,0.66,cubic,-2.147,0.867,0.000,12.372,0.000,3.955,3.955,3.955,90.0,90.0,90.0,0.934
ErYO3,Er,Y,FALSE,3,3,1.06,0.90,cubic,-2.821,1.031,0.000,15.395,1.447,4.254,4.254,4.254,90.0,90.0,90.0,0.436
ErYbO3,Er,Yb,FALSE,3,3,1.06,0.87,cubic,-2.330,1.022,-0.156,13.649,0.000,4.087,4.087,4.087,90.0,90.0,90.0,-2.139
ErZnO3,Er,Zn,FALSE,not balanced,not balanced,1.06,0.74,orthorhombic,-2.459,0.149,-0.002,11.089,0.000,5.210,5.741,7.416,90.0,90.0,90.0,-0.385
ErZrO3,Er,Zr,FALSE,3,3,1.06,0.72,cubic,-2.910,0.683,0.000,13.973,0.000,4.119,4.119,4.119,90.0,90.0,90.0,4.018
EuAcO3,Eu,Ac,FALSE,element not in BV,element not in BV,1.48,1.12,cubic,-2.572,0.576,0.073,19.427,0.000,4.597,4.597,4.597,90.0,90.0,90.0,-0.486
EuAgO3,Eu,Ag,FALSE,3,3,1.12,0.75,orthorhombic,-1.517,-0.027,0.000,12.617,0.000,5.538,5.810,7.843,90.0,90.0,90.0,-0.606
EuAlO3,Eu,Al,TRUE,3,3,1.12,0.54,cubic,-3.105,-0.075,0.166,10.325,0.000,3.724,3.724,3.724,90.0,90.0,90.0,0.755
EuAsO3,Eu,As,FALSE,3,3,1.12,0.58,tetragonal,-2.314,-0.081,0.000,12.160,0.000,3.810,3.810,4.188,90.0,90.0,90.0,2.453
EuAuO3,Eu,Au,FALSE,element not in BV,element not in BV,1.48,0.93,orthorhombic,-1.587,-0.057,0.000,12.794,0.000,5.610,5.931,7.690,90.0,90.0,90.0,-0.489
EuBO3,Eu,B,FALSE,not balanced,not balanced,1.48,0.27,cubic,-2.082,0.846,0.187,8.350,0.000,3.469,3.469,3.469,90.0,90.0,90.0,-0.822
EuBaO3,Eu,Ba,FALSE,not balanced,not balanced,1.48,1.35,orthorhombic,-2.440,0.189,0.000,17.650,2.094,6.580,6.659,8.056,90.0,90.0,90.0,-1.762
EuBeO3,Eu,Be,FALSE,not balanced,not balanced,1.48,0.45,cubic,-2.309,0.249,0.398,9.202,0.000,3.583,3.583,3.583,90.0,90.0,90.0,-0.922
EuBiO3,Eu,Bi,FALSE,3,3,1.12,1.03,orthorhombic,-2.255,-0.106,0.000,14.761,0.000,5.807,6.071,8.373,90.0,90.0,90.0,1.429
EuCaO3,Eu,Ca,FALSE,not balanced,not balanced,1.48,1.00,cubic,-2.078,0.585,0.400,15.155,0.000,4.232,4.232,4.232,90.0,90.0,90.0,-1.855
EuCdO3,Eu,Cd,FALSE,not balanced,not balanced,1.48,0.95,orthorhombic,-1.690,0.163,0.000,13.404,0.000,5.659,5.960,7.949,90.0,90.0,90.0,-1.123
EuCeO3,Eu,Ce,FALSE,2,4,1.48,0.87,cubic,-2.557,0.562,0.200,18.150,0.000,4.494,4.494,4.494,90.0,90.0,90.0,-1.183
EuCoO3,Eu,Co,FALSE,2,4,1.48,0.53,orthorhombic,-2.138,-0.038,0.600,10.583,0.000,5.258,5.313,7.577,90.0,90.0,90.0,1.590
EuCrO3,Eu,Cr,TRUE,2,4,1.48,0.55,orthorhombic,-2.800,-0.051,0.400,10.803,0.605,5.334,5.352,7.569,90.0,90.0,90.0,2.113
EuCsO3,Eu,Cs,FALSE,not balanced,not balanced,1.48,1.67,cubic,-0.846,1.155,0.000,17.853,0.000,4.469,4.469,4.469,90.0,90.0,90.0,-1.355
EuCuO3,Eu,Cu,FALSE,3,3,1.12,0.54,orthorhombic,-1.783,0.059,-0.026,10.542,0.000,5.269,5.329,7.509,90.0,90.0,90.0,0.065
EuDyO3,Eu,Dy,FALSE,3,3,1.12,0.91,orthorhombic,-3.173,0.110,0.198,14.724,0.000,5.866,6.064,8.278,90.0,90.0,90.0,-0.884
EuErO3,Eu,Er,FALSE,3,3,1.12,0.89,orthorhombic,-3.209,0.098,0.200,14.407,0.000,5.813,6.018,8.236,90.0,90.0,90.0,-0.805
Eu2O3,Eu,Eu,FALSE,3,3,1.12,0.95,cubic,-2.199,0.519,0.011,14.814,0.000,4.200,4.200,4.200,90.0,90.0,90.0,-1.227
EuFeO3,Eu,Fe,TRUE,3,3,1.12,0.65,orthorhombic,-2.417,-0.078,0.800,10.780,0.000,5.324,5.363,7.551,90.0,90.0,90.0,1.667
EuGaO3,Eu,Ga,TRUE,3,3,1.12,0.62,rhombohedral,-2.430,0.013,0.199,11.255,0.000,5.329,5.329,5.329,62.3,62.3,62.3,-0.252
EuGdO3,Eu,Gd,FALSE,3,3,1.12,0.94,orthorhombic,-3.132,0.123,0.199,15.060,0.000,5.913,6.098,8.353,90.0,90.0,90.0,-0.954
EuGeO3,Eu,Ge,FALSE,2,4,1.48,0.53,rhombohedral,-2.704,-0.212,0.000,10.559,1.791,5.284,5.284,5.284,60.5,60.5,60.5,4.364
EuHfO3,Eu,Hf,FALSE,2,4,1.48,0.71,orthorhombic,-3.844,-0.182,0.000,12.898,4.521,5.623,5.727,8.010,90.0,90.0,90.0,6.690
EuHgO3,Eu,Hg,FALSE,not balanced,not balanced,1.48,1.11,orthorhombic,-1.496,0.045,-0.001,13.993,0.000,5.730,6.504,7.509,90.0,90.0,90.0,-0.919
EuHoO3,Eu,Ho,FALSE,3,3,1.12,0.90,orthorhombic,-3.192,0.104,0.200,14.563,0.000,5.835,6.039,8.266,90.0,90.0,90.0,-0.853
EuInO3,Eu,In,FALSE,3,3,1.12,0.80,orthorhombic,-2.217,0.085,0.200,13.472,0.000,5.687,5.960,7.949,90.0,90.0,90.0,-0.835
EuIrO3,Eu,Ir,FALSE,2,4,1.48,0.63,orthorhombic,-2.097,-0.043,0.051,11.766,0.000,5.351,5.695,7.722,90.0,90.0,90.0,1.311
EuKO3,Eu,K,FALSE,not balanced,not balanced,1.48,1.38,cubic,-0.646,1.362,-0.141,15.183,0.000,4.234,4.234,4.234,90.0,90.0,90.0,-4.333
EuLaO3,Eu,La,FALSE,3,3,1.12,1.03,orthorhombic,-3.074,0.141,0.200,16.201,0.000,5.979,6.232,8.697,90.0,90.0,90.0,-0.814
EuLiO3,Eu,Li,FALSE,not balanced,not balanced,1.48,0.76,rhombohedral,-1.720,0.353,0.600,10.293,0.000,5.258,5.258,5.258,60.1,60.1,60.1,-0.787
EuLuO3,Eu,Lu,FALSE,3,3,1.12,0.86,orthorhombic,-3.261,0.094,0.200,13.942,0.000,5.739,5.952,8.162,90.0,90.0,90.0,-0.626
EuMgO3,Eu,Mg,FALSE,not balanced,not balanced,1.48,0.72,orthorhombic,-2.357,0.197,0.400,11.884,0.000,5.219,5.845,7.792,90.0,90.0,90.0,-0.701
EuMnO3,Eu,Mn,TRUE,2,4,1.48,0.53,rhombohedral,-2.612,0.003,0.600,10.640,0.000,5.283,5.283,5.283,60.9,60.9,60.9,1.741
EuMoO3,Eu,Mo,FALSE,2,4,1.48,0.65,orthorhombic,-2.815,-0.101,0.002,12.007,0.000,5.490,5.587,7.830,90.0,90.0,90.0,4.925
EuNaO3,Eu,Na,FALSE,not balanced,not balanced,1.48,1.02,orthorhombic,-1.751,0.234,0.000,12.024,0.000,5.995,6.293,6.374,90.0,90.0,90.0,-2.046
EuNbO3,Eu,Nb,FALSE,2,4,1.48,0.68,orthorhombic,-3.211,-0.053,0.000,12.602,0.000,5.571,5.681,7.963,90.0,90.0,90.0,5.532
EuNdO3,Eu,Nd,FALSE,3,3,1.12,0.98,cubic,-2.666,0.567,0.200,17.198,0.000,4.414,4.414,4.414,90.0,90.0,90.0,-1.140
EuNiO3,Eu,Ni,TRUE,3,3,1.12,0.60,orthorhombic,-1.895,0.000,0.000,10.519,0.000,5.280,5.287,7.537,90.0,90.0,90.0,0.409
EuNpO3,Eu,Np,FALSE,element not in BV,element not in BV,1.48,0.86,orthorhombic,-3.586,-0.001,0.600,15.202,2.489,5.882,6.106,8.465,90.0,90.0,90.0,3.634
EuOsO3,Eu,Os,FALSE,element not in BV,element not in BV,1.48,0.57,orthorhombic,-2.199,-0.143,0.179,11.695,0.000,5.377,5.624,7.734,90.0,90.0,90.0,2.511
EuPaO3,Eu,Pa,FALSE,element not in BV,element not in BV,1.48,0.91,orthorhombic,-3.341,-0.123,0.200,15.877,4.657,5.962,6.200,8.591,90.0,90.0,90.0,5.807
EuPbO3,Eu,Pb,FALSE,2,4,1.48,0.78,orthorhombic,-2.177,-0.150,0.000,14.096,1.234,5.726,5.984,8.227,90.0,90.0,90.0,1.477
EuPdO3,Eu,Pd,FALSE,2,4,1.48,0.62,orthorhombic,-1.884,-0.090,0.000,11.872,0.454,5.416,5.659,7.747,90.0,90.0,90.0,0.085
EuPmO3,Eu,Pm,FALSE,element not in BV,element not in BV,1.48,0.97,orthorhombic,-3.057,0.140,0.201,15.650,0.000,5.961,6.169,8.513,90.0,90.0,90.0,-1.079
EuPrO3,Eu,Pr,FALSE,2,4,1.48,0.85,cubic,-2.616,0.530,0.200,17.636,0.000,4.451,4.451,4.451,90.0,90.0,90.0,-1.142
EuPtO3,Eu,Pt,FALSE,element not in BV,element not in BV,1.48,0.67,orthorhombic,-1.964,-0.071,0.000,12.001,0.623,5.411,5.712,7.765,90.0,90.0,90.0,0.039
EuPuO3,Eu,Pu,FALSE,element not in BV,element not in BV,1.48,0.83,orthorhombic,-3.502,-0.187,0.800,14.941,2.018,5.846,6.071,8.420,90.0,90.0,90.0,3.583
EuRbO3,Eu,Rb,FALSE,not balanced,not balanced,1.48,1.52,cubic,-0.656,1.339,0.000,15.683,0.000,4.280,4.280,4.280,90.0,90.0,90.0,-2.952
EuReO3,Eu,Re,FALSE,2,4,1.48,0.63,orthorhombic,-2.450,-0.067,-0.002,11.845,0.000,5.458,5.580,7.778,90.0,90.0,90.0,3.283
EuRhO3,Eu,Rh,TRUE,2,4,1.48,0.60,orthorhombic,-2.109,-0.128,0.194,11.660,0.000,5.371,5.626,7.717,90.0,90.0,90.0,1.403
EuRuO3,Eu,Ru,FALSE,2,4,1.48,0.62,orthorhombic,-2.260,-0.112,0.383,11.669,0.000,5.413,5.571,7.738,90.0,90.0,90.0,2.747
EuSbO3,Eu,Sb,FALSE,3,3,1.12,0.76,orthorhombic,-2.434,-0.040,0.000,13.617,0.000,5.676,5.893,8.142,90.0,90.0,90.0,2.693
EuScO3,Eu,Sc,TRUE,3,3,1.12,0.75,orthorhombic,-3.238,0.030,0.200,12.808,0.000,5.567,5.786,7.954,90.0,90.0,90.0,-0.446
EuSiO3,Eu,Si,FALSE,3,3,1.12,0.40,cubic,-3.283,0.001,0.000,9.277,3.989,3.593,3.593,3.593,90.0,90.0,90.0,6.453
EuSmO3,Eu,Sm,FALSE,3,3,1.12,0.96,orthorhombic,-3.075,0.134,0.200,15.500,0.000,5.955,6.169,8.438,90.0,90.0,90.0,-1.080
EuSnO3,Eu,Sn,FALSE,2,4,1.48,0.69,orthorhombic,-2.701,-0.171,0.000,12.755,2.578,5.587,5.716,7.989,90.0,90.0,90.0,3.686
EuSrO3,Eu,Sr,FALSE,not balanced,not balanced,1.48,1.18,cubic,-1.754,0.901,-0.081,16.601,0.000,4.362,4.362,4.362,90.0,90.0,90.0,-2.838
EuTaO3,Eu,Ta,FALSE,2,4,1.48,0.68,orthorhombic,-3.311,0.037,0.000,12.470,0.000,5.561,5.643,7.948,90.0,90.0,90.0,5.762
EuTbO3,Eu,Tb,FALSE,2,4,1.48,0.76,orthorhombic,-3.023,0.116,0.199,14.899,0.000,5.907,6.100,8.269,90.0,90.0,90.0,-0.919
EuTcO3,Eu,Tc,FALSE,element not in BV,element not in BV,1.48,0.60,orthorhombic,-2.529,-0.150,0.268,11.721,0.000,5.446,5.552,7.754,90.0,90.0,90.0,3.834
EuTeO3,Eu,Te,FALSE,2,4,1.48,0.97,orthorhombic,-2.197,0.146,0.000,14.143,0.215,5.718,6.001,8.244,90.0,90.0,90.0,2.866
EuThO3,Eu,Th,FALSE,2,4,1.48,0.94,orthorhombic,-3.803,0.097,0.000,16.323,4.512,6.017,6.239,8.697,90.0,90.0,90.0,5.479
EuTiO3,Eu,Ti,TRUE,2,4,1.48,0.61,orthorhombic,-3.558,-0.254,0.000,11.432,2.192,5.443,5.458,7.697,90.0,90.0,90.0,5.431
EuTlO3,Eu,Tl,FALSE,3,3,1.12,0.89,orthorhombic,-1.756,0.088,0.047,14.166,0.000,5.709,6.093,8.144,90.0,90.0,90.0,-0.874
EuTmO3,Eu,Tm,FALSE,3,3,1.12,0.88,orthorhombic,-3.234,0.090,0.200,14.242,0.000,5.803,6.000,8.181,90.0,90.0,90.0,-0.721
EuUO3,Eu,U,FALSE,2,4,1.48,0.89,cubic,-3.143,0.507,0.382,17.029,0.000,4.399,4.399,4.399,90.0,90.0,90.0,4.988
EuVO3,Eu,V,FALSE,2,4,1.48,0.58,orthorhombic,-3.100,-0.093,0.200,11.066,0.000,5.361,5.369,7.689,90.0,90.0,90.0,4.117
EuWO3,Eu,W,FALSE,2,4,1.48,0.66,orthorhombic,-2.797,0.116,0.000,12.094,0.000,5.503,5.595,7.854,90.0,90.0,90.0,4.772
EuYO3,Eu,Y,FALSE,3,3,1.12,0.90,orthorhombic,-3.153,0.109,0.200,14.773,0.000,5.931,6.134,8.122,90.0,90.0,90.0,-1.052
EuYbO3,Eu,Yb,FALSE,3,3,1.12,0.87,cubic,-2.275,0.487,0.083,13.857,0.000,4.107,4.107,4.107,90.0,90.0,90.0,-1.411
EuZnO3,Eu,Zn,FALSE,not balanced,not balanced,1.48,0.74,rhombohedral,-1.909,0.109,-0.011,11.160,0.000,5.295,5.295,5.295,62.8,62.8,62.8,-0.550
EuZrO3,Eu,Zr,FALSE,2,4,1.48,0.72,orthorhombic,-3.691,0.000,0.000,13.299,4.134,5.661,5.809,8.087,90.0,90.0,90.0,6.201
FeAcO3,Fe,Ac,FALSE,element not in BV,element not in BV,0.85,1.12,orthorhombic,-2.546,0.185,1.000,15.314,1.947,5.802,5.819,9.072,90.0,90.0,90.0,-
FeAgO3,Fe,Ag,FALSE,3,3,0.78,0.75,orthorhombic,-0.778,0.180,0.861,11.314,0.000,5.105,5.260,8.427,90.0,90.0,90.0,-3.294
FeAlO3,Fe,Al,FALSE,3,3,0.78,0.54,cubic,-1.806,0.652,0.997,9.452,0.000,3.615,3.615,3.615,90.0,90.0,90.0,-1.638
FeAsO3,Fe,As,FALSE,3,3,0.78,0.58,cubic,-0.842,0.710,0.724,10.618,0.000,3.758,3.758,3.758,90.0,90.0,90.0,0.012
FeAuO3,Fe,Au,FALSE,element not in BV,element not in BV,0.85,0.93,cubic,0.152,1.117,0.830,12.796,0.000,4.000,4.000,4.000,90.0,90.0,90.0,-3.040
FeBO3,Fe,B,FALSE,3,3,0.78,0.27,cubic,-1.021,1.146,0.999,7.332,0.000,3.322,3.322,3.322,90.0,90.0,90.0,-1.342
FeBaO3,Fe,Ba,FALSE,not balanced,not balanced,0.85,1.35,orthorhombic,-1.974,0.121,0.800,16.243,0.000,5.362,6.167,9.825,90.0,90.0,90.0,-
FeBeO3,Fe,Be,FALSE,not balanced,not balanced,0.85,0.45,cubic,0.174,2.186,0.718,16.116,0.000,4.319,4.319,4.319,90.0,90.0,90.0,-17.049
FeBiO3,Fe,Bi,FALSE,1,5,0.92,0.76,orthorhombic,-1.345,0.224,0.793,13.052,0.000,5.643,5.652,8.184,90.0,90.0,90.0,-
FeCaO3,Fe,Ca,FALSE,not balanced,not balanced,0.85,1.00,orthorhombic,-1.995,0.201,0.800,12.828,0.000,5.458,5.547,8.475,90.0,90.0,90.0,-
FeCdO3,Fe,Cd,FALSE,not balanced,not balanced,0.85,0.95,orthorhombic,-1.136,0.225,0.800,12.169,0.000,5.404,5.444,8.272,90.0,90.0,90.0,-6.389
FeCeO3,Fe,Ce,FALSE,2,4,0.92,0.87,orthorhombic,-2.463,0.206,1.000,14.287,1.584,5.697,5.723,8.764,90.0,90.0,90.0,-6.169
FeCoO3,Fe,Co,FALSE,2,4,0.92,0.53,cubic,-0.651,0.812,1.224,9.292,0.000,3.595,3.595,3.595,90.0,90.0,90.0,-1.547