Chemical formula,A,B,In literature,Valence A,Valence B,Radius A [ang],Radius B [ang],Lowest distortion,Formation energy [eV/atom],Stability [eV/atom],Magnetic moment [mu_B],Volume per atom [A^3/atom],Band gap [eV],a [ang],b [ang],c [ang],alpha [deg],beta [deg],gamma [deg],Vacancy energy [eV/O atom]
FeCrO3,Fe,Cr,FALSE,2,4,0.92,0.55,cubic,-1.145,0.920,1.433,12.253,0.000,3.942,3.942,3.942,90.0,90.0,90.0,-2.381
FeCsO3,Fe,Cs,FALSE,not balanced,not balanced,0.85,1.67,rhombohedral,-1.184,0.269,0.600,22.234,1.900,6.833,6.833,6.833,59.4,59.4,59.4,-
FeCuO3,Fe,Cu,FALSE,not balanced,not balanced,0.85,0.68,cubic,0.413,1.571,1.302,16.651,0.000,4.367,4.367,4.367,90.0,90.0,90.0,-11.216
FeDyO3,Fe,Dy,FALSE,3,3,0.78,0.91,cubic,-1.335,1.448,1.001,15.497,0.000,4.263,4.263,4.263,90.0,90.0,90.0,-5.519
FeErO3,Fe,Er,FALSE,3,3,0.78,0.89,cubic,-1.331,1.464,0.818,13.992,0.000,4.120,4.120,4.120,90.0,90.0,90.0,-5.831
FeEuO3,Fe,Eu,FALSE,3,3,0.78,0.95,orthorhombic,-2.130,0.286,0.800,13.439,0.232,5.643,5.670,8.401,90.0,90.0,90.0,-7.932
Fe2O3,Fe,Fe,FALSE,3,3,0.78,0.65,cubic,-0.936,0.714,1.658,10.338,0.000,3.725,3.725,3.725,90.0,90.0,90.0,-1.446
FeGaO3,Fe,Ga,FALSE,3,3,0.78,0.62,cubic,-0.979,0.898,0.999,10.419,0.000,3.735,3.735,3.735,90.0,90.0,90.0,-3.176
FeGdO3,Fe,Gd,FALSE,3,3,0.78,0.94,orthorhombic,-2.587,0.179,1.000,12.880,1.638,5.532,5.565,8.369,90.0,90.0,90.0,-5.837
FeGeO3,Fe,Ge,FALSE,2,4,0.92,0.53,cubic,-1.199,0.621,0.799,10.059,0.000,3.691,3.691,3.691,90.0,90.0,90.0,-
FeHfO3,Fe,Hf,FALSE,2,4,0.92,0.71,cubic,-2.220,0.691,0.800,13.214,0.000,4.043,4.043,4.043,90.0,90.0,90.0,0.664
FeHgO3,Fe,Hg,FALSE,not balanced,not balanced,0.85,1.11,orthorhombic,-0.812,0.195,0.852,12.624,0.000,5.322,5.442,8.718,90.0,90.0,90.0,-8.749
FeHoO3,Fe,Ho,FALSE,3,3,0.78,0.90,cubic,-1.299,1.490,1.001,18.120,0.000,4.491,4.491,4.491,90.0,90.0,90.0,-6.084
FeInO3,Fe,In,FALSE,not balanced,not balanced,0.85,0.80,-,-,-,-,-,-,-,-,-,-,-,-,-
FeIrO3,Fe,Ir,FALSE,2,4,0.92,0.63,cubic,-0.426,0.878,0.897,11.221,0.000,3.828,3.828,3.828,90.0,90.0,90.0,-0.962
FeKO3,Fe,K,FALSE,not balanced,not balanced,0.85,1.38,orthorhombic,-1.295,0.150,0.600,15.828,0.552,5.401,5.856,10.009,90.0,90.0,90.0,-
FeLaO3,Fe,La,FALSE,3,3,0.78,1.03,orthorhombic,-2.577,0.178,1.000,14.207,1.742,5.688,5.694,8.774,90.0,90.0,90.0,-6.303
FeLiO3,Fe,Li,FALSE,not balanced,not balanced,0.85,0.76,orthorhombic,-1.175,0.376,0.600,8.670,0.000,4.805,5.041,7.159,90.0,90.0,90.0,-5.451
FeLuO3,Fe,Lu,FALSE,3,3,0.78,0.86,-,-,-,-,-,-,-,-,-,-,-,-,-
FeMgO3,Fe,Mg,FALSE,not balanced,not balanced,0.85,0.72,cubic,-0.875,1.179,0.824,10.708,0.000,3.769,3.769,3.769,90.0,90.0,90.0,-
FeMnO3,Fe,Mn,FALSE,2,4,0.92,0.53,cubic,-1.138,0.695,1.487,10.256,0.000,3.715,3.715,3.715,90.0,90.0,90.0,-1.399
FeMoO3,Fe,Mo,FALSE,2,4,0.92,0.65,rhombohedral,-1.736,0.204,0.417,10.999,0.000,5.404,5.404,5.404,59.4,59.4,59.4,3.347
FeNaO3,Fe,Na,FALSE,not balanced,not balanced,0.85,1.02,orthorhombic,-1.220,0.262,0.600,12.519,0.614,5.286,5.410,8.756,90.0,90.0,90.0,-
FeNbO3,Fe,Nb,FALSE,2,4,0.92,0.68,orthorhombic,-2.137,0.205,0.603,11.027,0.000,5.289,5.448,7.654,90.0,90.0,90.0,3.879
FeNdO3,Fe,Nd,FALSE,not balanced,not balanced,0.85,0.98,orthorhombic,-2.506,0.200,1.000,13.723,1.722,5.644,5.648,8.610,90.0,90.0,90.0,-
FeNiO3,Fe,Ni,FALSE,2,4,0.92,0.48,cubic,-0.519,0.815,1.133,9.512,0.000,3.623,3.623,3.623,90.0,90.0,90.0,-2.889
FeNpO3,Fe,Np,FALSE,element not in BV,element not in BV,0.85,0.86,cubic,-1.809,1.025,1.132,16.032,0.000,4.312,4.312,4.312,90.0,90.0,90.0,-
FeOsO3,Fe,Os,FALSE,element not in BV,element not in BV,0.85,0.57,cubic,-0.719,0.629,0.640,11.449,0.000,3.854,3.854,3.854,90.0,90.0,90.0,1.017
FePaO3,Fe,Pa,FALSE,element not in BV,element not in BV,0.85,0.91,cubic,-1.942,0.525,0.717,16.444,0.000,4.348,4.348,4.348,90.0,90.0,90.0,-
FePbO3,Fe,Pb,FALSE,2,4,0.92,0.78,rhombohedral,-1.213,0.229,0.881,13.920,0.000,5.927,5.927,5.927,57.6,57.6,57.6,-
FePdO3,Fe,Pd,FALSE,2,4,0.92,0.62,cubic,-0.172,0.913,0.942,11.741,0.000,3.887,3.887,3.887,90.0,90.0,90.0,-
FePmO3,Fe,Pm,FALSE,element not in BV,element not in BV,0.85,0.97,orthorhombic,-2.532,0.195,1.000,13.471,1.787,5.614,5.620,8.539,90.0,90.0,90.0,-6.993
FePrO3,Fe,Pr,FALSE,not balanced,not balanced,0.85,0.92,orthorhombic,-2.487,0.204,1.000,13.986,1.676,5.669,5.684,8.681,90.0,90.0,90.0,-
FePtO3,Fe,Pt,FALSE,element not in BV,element not in BV,0.85,0.67,cubic,-0.185,0.988,0.918,12.075,0.000,3.923,3.923,3.923,90.0,90.0,90.0,-2.384
FePuO3,Fe,Pu,FALSE,element not in BV,element not in BV,0.85,0.83,rhombohedral,-2.601,0.102,1.601,13.871,0.000,5.946,5.946,5.946,57.1,57.1,57.1,-
FeRbO3,Fe,Rb,FALSE,not balanced,not balanced,0.85,1.52,orthorhombic,-1.304,0.106,0.600,17.168,0.505,5.491,6.010,10.406,90.0,90.0,90.0,-
FeReO3,Fe,Re,FALSE,2,4,0.92,0.63,cubic,-1.072,0.561,0.661,12.073,0.000,3.923,3.923,3.923,90.0,90.0,90.0,1.515
FeRhO3,Fe,Rh,FALSE,2,4,0.92,0.60,cubic,-0.455,0.837,1.044,11.490,0.000,3.859,3.859,3.859,90.0,90.0,90.0,-1.010
FeRuO3,Fe,Ru,FALSE,1,5,0.92,0.57,cubic,-0.063,1.337,1.346,17.007,0.000,4.397,4.397,4.397,90.0,90.0,90.0,-
FeSbO3,Fe,Sb,FALSE,1,5,0.92,0.60,cubic,-0.990,0.664,0.663,12.578,0.000,3.977,3.977,3.977,90.0,90.0,90.0,-
FeScO3,Fe,Sc,FALSE,not balanced,not balanced,0.85,0.75,-,-,-,-,-,-,-,-,-,-,-,-,-
FeSiO3,Fe,Si,FALSE,2,4,0.92,0.40,cubic,-1.908,0.594,0.800,8.664,0.000,3.512,3.512,3.512,90.0,90.0,90.0,3.687
FeSmO3,Fe,Sm,FALSE,not balanced,not balanced,0.85,0.96,orthorhombic,-2.544,0.190,1.000,13.318,1.655,5.591,5.605,8.499,90.0,90.0,90.0,-
FeSnO3,Fe,Sn,FALSE,2,4,0.92,0.69,cubic,-1.056,0.724,0.800,12.725,0.000,3.992,3.992,3.992,90.0,90.0,90.0,-
FeSrO3,Fe,Sr,FALSE,not balanced,not balanced,0.85,1.18,orthorhombic,-1.978,0.210,0.800,14.629,0.000,5.582,5.783,9.064,90.0,90.0,90.0,-8.054
FeTaO3,Fe,Ta,FALSE,2,4,0.92,0.68,orthorhombic,-2.288,0.272,0.619,11.095,0.000,5.178,5.767,7.432,90.0,90.0,90.0,4.700
FeTbO3,Fe,Tb,FALSE,2,4,0.92,0.76,cubic,-1.188,1.455,0.983,15.678,0.000,4.280,4.280,4.280,90.0,90.0,90.0,-5.344
FeTcO3,Fe,Tc,FALSE,element not in BV,element not in BV,0.85,0.60,orthorhombic,-1.475,0.153,1.004,10.405,0.000,5.135,5.373,7.543,90.0,90.0,90.0,2.881
FeTeO3,Fe,Te,FALSE,2,4,0.92,0.97,cubic,-0.652,0.771,0.675,13.545,0.000,4.076,4.076,4.076,90.0,90.0,90.0,0.539
FeThO3,Fe,Th,FALSE,2,4,0.92,0.94,cubic,-1.891,1.259,0.801,20.940,0.000,4.713,4.713,4.713,90.0,90.0,90.0,-
FeTiO3,Fe,Ti,FALSE,2,4,0.92,0.61,cubic,-2.033,0.567,0.799,11.180,0.000,3.824,3.824,3.824,90.0,90.0,90.0,1.521
FeTlO3,Fe,Tl,FALSE,3,3,0.78,0.89,orthorhombic,-1.146,0.148,1.000,12.604,0.664,5.458,5.471,8.441,90.0,90.0,90.0,-5.325
FeTmO3,Fe,Tm,FALSE,3,3,0.78,0.88,cubic,-1.450,1.373,1.003,14.675,0.000,4.187,4.187,4.187,90.0,90.0,90.0,-4.947
FeUO3,Fe,U,FALSE,2,4,0.92,0.89,cubic,-2.187,0.712,0.850,15.825,0.000,4.293,4.293,4.293,90.0,90.0,90.0,-
FeVO3,Fe,V,FALSE,2,4,0.92,0.58,cubic,-1.596,0.550,0.854,10.423,0.000,3.735,3.735,3.735,90.0,90.0,90.0,-
FeWO3,Fe,W,FALSE,2,4,0.92,0.66,rhombohedral,-1.692,0.309,0.612,10.754,0.000,5.299,5.299,5.299,61.0,61.0,61.0,-
FeYO3,Fe,Y,FALSE,not balanced,not balanced,0.85,0.90,-,-,-,-,-,-,-,-,-,-,-,-,-
FeYbO3,Fe,Yb,FALSE,3,3,0.78,0.87,orthorhombic,-2.132,0.252,1.081,12.484,0.000,5.523,5.641,8.013,90.0,90.0,90.0,-6.404
FeZnO3,Fe,Zn,FALSE,not balanced,not balanced,0.85,0.74,cubic,-0.065,1.467,1.200,15.474,0.000,4.261,4.261,4.261,90.0,90.0,90.0,-8.420
FeZrO3,Fe,Zr,FALSE,2,4,0.92,0.72,cubic,-2.020,0.768,0.800,13.774,0.000,4.099,4.099,4.099,90.0,90.0,90.0,-0.155
GaAcO3,Ga,Ac,FALSE,element not in BV,element not in BV,0.62,1.12,orthorhombic,-2.856,0.057,0.000,15.888,2.996,4.540,6.777,10.328,90.0,90.0,90.0,-2.981
GaAgO3,Ga,Ag,FALSE,not balanced,not balanced,0.62,0.95,orthorhombic,-0.976,0.187,-,11.287,0.000,5.139,5.195,8.455,90.0,90.0,90.0,-4.033
GaAlO3,Ga,Al,FALSE,3,3,0.62,0.54,cubic,-1.810,0.873,-,9.633,0.000,3.638,3.638,3.638,90.0,90.0,90.0,-2.101
GaAsO3,Ga,As,FALSE,1,5,0.62,0.46,cubic,-0.972,0.802,-,10.910,0.000,3.793,3.793,3.793,90.0,90.0,90.0,1.189
GaAuO3,Ga,Au,FALSE,element not in BV,element not in BV,0.62,0.93,cubic,-0.050,1.141,-,13.124,0.000,4.033,4.033,4.033,90.0,90.0,90.0,-0.571
GaBO3,Ga,B,FALSE,3,3,0.62,0.27,cubic,-0.962,1.400,-,7.415,0.000,3.334,3.334,3.334,90.0,90.0,90.0,-1.460
GaBaO3,Ga,Ba,FALSE,not balanced,not balanced,0.62,1.35,orthorhombic,-2.144,0.086,-,16.181,0.000,5.418,6.343,9.417,90.0,90.0,90.0,-6.223
GaBeO3,Ga,Be,FALSE,not balanced,not balanced,0.62,0.45,cubic,-1.127,1.110,-,8.033,0.000,3.425,3.425,3.425,90.0,90.0,90.0,-3.958
GaBiO3,Ga,Bi,FALSE,1,5,0.62,0.76,orthorhombic,-1.645,0.153,-,15.009,1.600,5.373,6.159,9.071,90.0,90.0,90.0,-1.408
GaCaO3,Ga,Ca,FALSE,not balanced,not balanced,0.62,1.00,orthorhombic,-2.225,0.173,-,12.780,0.000,5.274,5.665,8.555,90.0,90.0,90.0,-7.540
GaCdO3,Ga,Cd,FALSE,not balanced,not balanced,0.62,0.95,orthorhombic,-1.364,0.202,-,12.293,0.000,5.318,5.556,8.321,90.0,90.0,90.0,-6.244
GaCeO3,Ga,Ce,FALSE,not balanced,not balanced,0.62,0.94,rhombohedral,-2.702,0.151,0.000,15.640,3.276,6.350,6.350,6.350,54.2,54.2,54.2,-4.648
GaCoO3,Ga,Co,FALSE,not balanced,not balanced,0.62,0.63,cubic,0.188,1.865,0.405,18.073,0.000,4.487,4.487,4.487,90.0,90.0,90.0,-11.419
GaCrO3,Ga,Cr,FALSE,1,5,0.62,0.49,cubic,-1.394,0.897,0.433,10.660,0.000,3.763,3.763,3.763,90.0,90.0,90.0,-1.107
GaCsO3,Ga,Cs,FALSE,not balanced,not balanced,0.62,1.67,cubic,0.297,1.911,-,17.095,0.000,4.405,4.405,4.405,90.0,90.0,90.0,-9.033
GaCuO3,Ga,Cu,FALSE,not balanced,not balanced,0.62,0.68,cubic,-0.437,0.936,-,9.964,0.000,3.680,3.680,3.680,90.0,90.0,90.0,-3.683
GaDyO3,Ga,Dy,FALSE,not balanced,not balanced,0.62,0.99,cubic,-1.623,1.365,-0.401,16.516,0.000,4.355,4.355,4.355,90.0,90.0,90.0,-4.653
GaErO3,Ga,Er,FALSE,not balanced,not balanced,0.62,0.89,cubic,-1.666,1.341,-0.408,15.944,0.000,4.304,4.304,4.304,90.0,90.0,90.0,-4.653
GaEuO3,Ga,Eu,FALSE,not balanced,not balanced,0.62,1.06,orthorhombic,-2.389,0.054,0.200,13.375,0.695,5.225,5.829,8.783,90.0,90.0,90.0,-6.403
GaFeO3,Ga,Fe,FALSE,not balanced,not balanced,0.62,0.67,cubic,-0.988,0.889,0.751,10.572,0.000,3.753,3.753,3.753,90.0,90.0,90.0,-2.251
Ga2O3,Ga,Ga,FALSE,not balanced,not balanced,0.62,0.62,cubic,-1.034,1.067,-,10.858,0.000,3.787,3.787,3.787,90.0,90.0,90.0,-3.944
GaGdO3,Ga,Gd,FALSE,not balanced,not balanced,0.62,0.94,rhombohedral,-2.822,0.176,0.000,13.700,3.228,5.996,5.996,5.996,55.6,55.6,55.6,-4.671
GaGeO3,Ga,Ge,FALSE,not balanced,not balanced,0.62,0.63,cubic,-1.238,0.668,-,10.316,0.000,3.722,3.722,3.722,90.0,90.0,90.0,1.949
GaHfO3,Ga,Hf,FALSE,not balanced,not balanced,0.62,0.71,cubic,-2.349,0.654,0.042,13.565,0.000,4.078,4.078,4.078,90.0,90.0,90.0,0.750
GaHgO3,Ga,Hg,FALSE,not balanced,not balanced,0.62,1.11,cubic,0.110,1.343,-,14.145,0.000,4.135,4.135,4.135,90.0,90.0,90.0,-5.349
GaHoO3,Ga,Ho,FALSE,not balanced,not balanced,0.62,0.90,cubic,-1.649,1.349,-0.402,16.417,0.000,4.346,4.346,4.346,90.0,90.0,90.0,-4.627
GaInO3,Ga,In,FALSE,not balanced,not balanced,0.62,0.80,cubic,-0.658,1.315,-,13.768,0.000,4.098,4.098,4.098,90.0,90.0,90.0,-5.324
GaIrO3,Ga,Ir,FALSE,1,5,0.62,0.57,cubic,-0.682,0.848,0.121,11.978,0.000,3.912,3.912,3.912,90.0,90.0,90.0,1.044
GaKO3,Ga,K,FALSE,not balanced,not balanced,0.62,1.38,orthorhombic,-1.386,0.257,-,15.222,1.887,5.730,6.759,7.860,90.0,90.0,90.0,-14.002
GaLaO3,Ga,La,FALSE,not balanced,not balanced,0.62,1.03,rhombohedral,-2.807,0.128,0.000,15.840,3.337,6.404,6.404,6.404,53.7,53.7,53.7,-4.204
GaLiO3,Ga,Li,FALSE,not balanced,not balanced,0.62,0.76,cubic,-0.355,1.439,-,8.755,0.000,3.524,3.524,3.524,90.0,90.0,90.0,-5.544
GaLuO3,Ga,Lu,FALSE,not balanced,not balanced,0.62,0.86,cubic,-1.738,1.293,-0.398,15.276,0.000,4.243,4.243,4.243,90.0,90.0,90.0,-4.527
GaMgO3,Ga,Mg,FALSE,not balanced,not balanced,0.62,0.72,cubic,-0.946,1.321,-,10.928,0.000,3.795,3.795,3.795,90.0,90.0,90.0,-5.304
GaMnO3,Ga,Mn,FALSE,not balanced,not balanced,0.62,0.62,cubic,-1.208,0.851,0.611,10.503,0.000,3.745,3.745,3.745,90.0,90.0,90.0,-1.828
GaMoO3,Ga,Mo,FALSE,1,5,0.62,0.61,cubic,-1.725,0.298,0.000,12.174,0.000,3.934,3.934,3.934,90.0,90.0,90.0,4.552
GaNaO3,Ga,Na,FALSE,not balanced,not balanced,0.62,1.02,orthorhombic,-1.390,0.326,-,12.016,1.633,5.574,6.025,7.156,90.0,90.0,90.0,-10.839
GaNbO3,Ga,Nb,FALSE,1,5,0.62,0.64,tetragonal,-2.186,0.159,0.000,13.115,0.296,3.963,3.963,4.175,90.0,90.0,90.0,4.928
GaNdO3,Ga,Nd,FALSE,not balanced,not balanced,0.62,0.98,rhombohedral,-2.749,0.143,0.000,14.980,3.279,6.254,6.254,6.254,54.3,54.3,54.3,-4.496
GaNiO3,Ga,Ni,FALSE,3,3,0.62,0.60,cubic,-0.575,0.994,0.149,9.735,0.000,3.651,3.651,3.651,90.0,90.0,90.0,-3.142
GaNpO3,Ga,Np,FALSE,element not in BV,element not in BV,0.62,0.86,rhombohedral,-2.695,0.231,0.800,14.960,0.549,6.146,6.146,6.146,56.2,56.2,56.2,1.275
GaOsO3,Ga,Os,FALSE,element not in BV,element not in BV,0.62,0.57,cubic,-0.970,0.604,0.003,11.827,0.000,3.896,3.896,3.896,90.0,90.0,90.0,3.040
GaPaO3,Ga,Pa,FALSE,element not in BV,element not in BV,0.62,0.91,orthorhombic,-2.435,0.125,0.000,15.708,2.720,6.024,6.070,8.592,90.0,90.0,90.0,5.587
GaPbO3,Ga,Pb,FALSE,not balanced,not balanced,0.62,0.99,rhombohedral,-1.447,0.223,-,14.175,0.000,6.036,6.036,6.036,56.2,56.2,56.2,-
GaPdO3,Ga,Pd,FALSE,not balanced,not balanced,0.62,0.75,cubic,-0.363,0.947,-,12.012,0.000,3.916,3.916,3.916,90.0,90.0,90.0,-2.645
GaPmO3,Ga,Pm,FALSE,element not in BV,element not in BV,0.62,0.97,rhombohedral,-2.776,0.136,0.000,14.693,3.372,6.202,6.202,6.202,54.5,54.5,54.5,-4.558
GaPrO3,Ga,Pr,FALSE,not balanced,not balanced,0.62,0.92,rhombohedral,-2.728,0.147,0.000,15.290,3.177,6.299,6.299,6.299,54.2,54.2,54.2,-4.886
GaPtO3,Ga,Pt,FALSE,element not in BV,element not in BV,0.62,0.67,cubic,-0.409,0.990,0.000,12.354,0.000,3.953,3.953,3.953,90.0,90.0,90.0,-0.123
GaPuO3,Ga,Pu,FALSE,element not in BV,element not in BV,0.62,0.83,orthorhombic,-2.799,0.096,1.000,15.101,1.347,5.363,6.069,9.280,90.0,90.0,90.0,0.763
GaRbO3,Ga,Rb,FALSE,not balanced,not balanced,0.62,1.52,orthorhombic,-1.371,0.254,-,16.763,1.967,5.779,7.022,8.261,90.0,90.0,90.0,-13.296
GaReO3,Ga,Re,FALSE,1,5,0.62,0.58,cubic,-1.394,0.425,0.000,11.944,0.000,3.909,3.909,3.909,90.0,90.0,90.0,4.492
GaRhO3,Ga,Rh,FALSE,not balanced,not balanced,0.62,0.61,cubic,-0.650,0.867,0.134,11.785,0.000,3.891,3.891,3.891,90.0,90.0,90.0,-0.916
GaRuO3,Ga,Ru,FALSE,1,5,0.62,0.57,cubic,-0.923,0.697,0.005,11.697,0.000,3.882,3.882,3.882,90.0,90.0,90.0,1.601
GaSbO3,Ga,Sb,FALSE,1,5,0.62,0.60,cubic,-1.237,0.604,-,12.736,0.000,3.993,3.993,3.993,90.0,90.0,90.0,2.604
GaScO3,Ga,Sc,FALSE,not balanced,not balanced,0.62,0.75,cubic,-1.744,1.210,-0.011,13.008,0.000,4.022,4.022,4.022,90.0,90.0,90.0,-4.511
GaSiO3,Ga,Si,FALSE,2,4,0.62,0.40,cubic,-1.882,0.662,-,8.921,0.000,3.546,3.546,3.546,90.0,90.0,90.0,3.184
GaSmO3,Ga,Sm,FALSE,not balanced,not balanced,0.62,0.96,rhombohedral,-2.776,0.151,0.000,14.206,3.133,6.069,6.069,6.069,55.6,55.6,55.6,-4.673
GaSnO3,Ga,Sn,FALSE,not balanced,not balanced,0.62,0.69,cubic,-1.166,0.777,-,12.978,0.000,4.018,4.018,4.018,90.0,90.0,90.0,0.718
GaSrO3,Ga,Sr,FALSE,not balanced,not balanced,0.62,1.18,orthorhombic,-2.191,0.192,-,14.391,0.000,5.305,5.986,9.064,90.0,90.0,90.0,-6.999
GaTaO3,Ga,Ta,FALSE,1,5,0.62,0.64,tetragonal,-2.396,0.146,0.000,12.719,0.989,3.966,3.966,4.044,90.0,90.0,90.0,5.757
GaTbO3,Ga,Tb,FALSE,not balanced,not balanced,0.62,0.84,rhombohedral,-2.708,0.139,0.000,13.530,3.176,5.972,5.972,5.972,55.6,55.6,55.6,-4.648
GaTcO3,Ga,Tc,FALSE,element not in BV,element not in BV,0.62,0.60,rhombohedral,-1.490,0.325,0.190,10.321,0.000,5.131,5.131,5.131,63.6,63.6,63.6,3.708
GaTeO3,Ga,Te,FALSE,not balanced,not balanced,0.62,0.77,cubic,-0.953,0.683,-,13.607,0.000,4.082,4.082,4.082,90.0,90.0,90.0,1.445
GaThO3,Ga,Th,FALSE,not balanced,not balanced,0.62,0.94,cubic,-2.295,0.948,-0.178,18.411,0.000,4.515,4.515,4.515,90.0,90.0,90.0,-0.240
GaTiO3,Ga,Ti,FALSE,not balanced,not balanced,0.62,0.71,cubic,-2.100,0.546,0.000,11.481,0.000,3.858,3.858,3.858,90.0,90.0,90.0,1.174
GaTlO3,Ga,Tl,FALSE,not balanced,not balanced,0.62,1.20,orthorhombic,-1.377,0.142,-,12.615,0.216,5.393,5.520,8.475,90.0,90.0,90.0,-5.618
GaTmO3,Ga,Tm,FALSE,not balanced,not balanced,0.62,0.96,cubic,-1.702,1.314,-0.399,15.834,0.000,4.294,4.294,4.294,90.0,90.0,90.0,-4.551
GaUO3,Ga,U,FALSE,1,5,0.62,0.76,tetragonal,-2.623,0.369,0.200,16.167,2.492,4.308,4.332,4.332,90.0,90.0,90.0,4.188
GaVO3,Ga,V,FALSE,1,5,0.62,0.54,cubic,-1.719,0.646,-0.078,10.861,0.000,3.787,3.787,3.787,90.0,90.0,90.0,1.138
GaWO3,Ga,W,FALSE,1,5,0.62,0.62,cubic,-1.840,0.190,0.000,12.222,0.000,3.939,3.939,3.939,90.0,90.0,90.0,5.257
GaYO3,Ga,Y,FALSE,not balanced,not balanced,0.62,0.90,rhombohedral,-2.835,0.134,0.000,13.399,3.344,5.952,5.952,5.952,55.6,55.6,55.6,-5.202
GaYbO3,Ga,Yb,FALSE,not balanced,not balanced,0.62,0.95,orthorhombic,-2.358,0.096,-,12.389,0.000,5.187,5.641,8.468,90.0,90.0,90.0,-6.984
GaZnO3,Ga,Zn,FALSE,not balanced,not balanced,0.62,0.74,cubic,-0.512,1.231,-,10.826,0.000,3.783,3.783,3.783,90.0,90.0,90.0,-4.946
GaZrO3,Ga,Zr,FALSE,not balanced,not balanced,0.62,0.72,cubic,-2.173,0.707,-0.088,14.219,0.000,4.143,4.143,4.143,90.0,90.0,90.0,0.185
GdAcO3,Gd,Ac,FALSE,element not in BV,element not in BV,1.11,1.12,cubic,-2.225,1.461,0.000,20.281,0.000,4.663,4.663,4.663,90.0,90.0,90.0,1.081
GdAgO3,Gd,Ag,FALSE,3,3,1.11,0.75,cubic,-1.484,0.525,0.000,13.023,0.000,4.023,4.023,4.023,90.0,90.0,90.0,-0.407
GdAlO3,Gd,Al,TRUE,3,3,1.11,0.54,orthorhombic,-3.569,-0.041,0.000,10.339,5.604,5.221,5.333,7.428,90.0,90.0,90.0,6.350
GdAsO3,Gd,As,FALSE,3,3,1.11,0.58,cubic,-1.959,0.660,0.000,12.804,0.000,4.000,4.000,4.000,90.0,90.0,90.0,2.291
GdAuO3,Gd,Au,FALSE,element not in BV,element not in BV,1.11,0.93,cubic,-1.348,0.727,0.000,13.762,0.000,4.098,4.098,4.098,90.0,90.0,90.0,-0.500
GdBO3,Gd,B,FALSE,not balanced,not balanced,1.11,0.27,cubic,-2.513,0.779,0.000,8.405,2.803,3.477,3.477,3.477,90.0,90.0,90.0,5.367
GdBaO3,Gd,Ba,FALSE,not balanced,not balanced,1.11,1.35,orthorhombic,-2.809,0.268,0.201,18.822,0.619,6.507,6.793,8.517,90.0,90.0,90.0,-6.988
GdBeO3,Gd,Be,FALSE,not balanced,not balanced,1.11,0.45,orthorhombic,-2.741,0.341,0.200,9.075,0.000,5.025,5.080,7.111,90.0,90.0,90.0,-0.771
GdBiO3,Gd,Bi,FALSE,3,3,1.11,1.03,cubic,-1.581,1.053,0.000,16.633,0.000,4.365,4.365,4.365,90.0,90.0,90.0,1.002
GdCaO3,Gd,Ca,FALSE,not balanced,not balanced,1.11,1.00,cubic,-2.207,0.980,0.200,13.960,0.000,4.117,4.117,4.117,90.0,90.0,90.0,-2.579
GdCdO3,Gd,Cd,FALSE,not balanced,not balanced,1.11,0.95,cubic,-1.652,0.738,0.000,13.727,0.000,4.094,4.094,4.094,90.0,90.0,90.0,-0.848
GdCeO3,Gd,Ce,FALSE,3,3,1.11,1.01,cubic,-2.371,1.285,0.000,18.680,0.432,4.537,4.537,4.537,90.0,90.0,90.0,-2.684
GdCoO3,Gd,Co,FALSE,3,3,1.11,0.61,-,-,-,-,-,-,-,-,-,-,-,-,-
GdCrO3,Gd,Cr,TRUE,3,3,1.11,0.62,orthorhombic,-3.185,-0.048,0.600,11.301,2.406,5.307,5.585,7.625,90.0,90.0,90.0,4.365
GdCsO3,Gd,Cs,FALSE,not balanced,not balanced,1.11,1.67,tetragonal,-1.832,0.628,0.003,16.918,0.000,3.337,3.337,7.596,90.0,90.0,90.0,-
GdCuO3,Gd,Cu,FALSE,3,3,1.11,0.54,orthorhombic,-2.263,0.043,0.000,11.178,0.000,5.251,5.860,7.265,90.0,90.0,90.0,0.875
GdDyO3,Gd,Dy,FALSE,3,3,1.11,0.91,cubic,-2.964,0.858,0.000,15.526,1.710,4.266,4.266,4.266,90.0,90.0,90.0,1.644
GdErO3,Gd,Er,FALSE,3,3,1.11,0.89,cubic,-3.062,0.783,0.000,15.015,1.779,4.219,4.219,4.219,90.0,90.0,90.0,4.376
GdEuO3,Gd,Eu,FALSE,3,3,1.11,0.95,cubic,-2.193,1.062,0.106,15.453,0.000,4.259,4.259,4.259,90.0,90.0,90.0,-2.044
GdFeO3,Gd,Fe,TRUE,3,3,1.11,0.65,orthorhombic,-2.766,-0.023,1.000,11.439,1.164,5.330,5.614,7.646,90.0,90.0,90.0,3.384
GdGaO3,Gd,Ga,TRUE,3,3,1.11,0.62,orthorhombic,-2.954,0.045,0.000,11.244,4.008,5.305,5.571,7.608,90.0,90.0,90.0,4.584
Gd2O3,Gd,Gd,FALSE,3,3,1.11,0.94,cubic,-2.850,0.943,0.000,16.115,1.454,4.319,4.319,4.319,90.0,90.0,90.0,0.680
GdGeO3,Gd,Ge,FALSE,2,4,1.11,0.53,cubic,-2.259,0.558,0.000,11.688,0.000,3.881,3.881,3.881,90.0,90.0,90.0,2.902
GdHfO3,Gd,Hf,FALSE,2,4,1.11,0.71,orthorhombic,-3.433,0.211,0.001,12.641,0.000,5.492,6.076,7.576,90.0,90.0,90.0,4.652
GdHgO3,Gd,Hg,FALSE,not balanced,not balanced,1.11,1.11,cubic,-1.236,0.842,0.000,14.726,0.000,4.191,4.191,4.191,90.0,90.0,90.0,-0.791
GdHoO3,Gd,Ho,FALSE,3,3,1.11,0.90,cubic,-3.015,0.818,0.000,15.277,1.648,4.243,4.243,4.243,90.0,90.0,90.0,1.857