Chemical formula,A,B,In literature,Valence A,Valence B,Radius A [ang],Radius B [ang],Lowest distortion,Formation energy [eV/atom],Stability [eV/atom],Magnetic moment [mu_B],Volume per atom [A^3/atom],Band gap [eV],a [ang],b [ang],c [ang],alpha [deg],beta [deg],gamma [deg],Vacancy energy [eV/O atom]
YbCeO3,Yb,Ce,FALSE,2,4,1.14,0.87,cubic,-2.379,0.784,0.200,18.026,0.000,4.484,4.484,4.484,90.0,90.0,90.0,-1.777
YbCoO3,Yb,Co,FALSE,3,3,1.04,0.61,orthorhombic,-2.109,-0.079,0.592,10.148,0.000,5.137,5.342,7.396,90.0,90.0,90.0,-
YbCrO3,Yb,Cr,TRUE,3,3,1.04,0.62,orthorhombic,-2.789,-0.024,0.400,10.367,0.578,5.191,5.406,7.389,90.0,90.0,90.0,1.718
YbCsO3,Yb,Cs,FALSE,not balanced,not balanced,1.04,1.67,cubic,-0.664,1.382,-,17.683,0.000,4.455,4.455,4.455,90.0,90.0,90.0,-1.623
YbCuO3,Yb,Cu,FALSE,3,3,1.04,0.54,orthorhombic,-1.752,0.118,-,10.113,0.000,5.178,5.302,7.368,90.0,90.0,90.0,-0.353
YbDyO3,Yb,Dy,FALSE,3,3,1.04,0.91,cubic,-2.759,0.569,0.199,15.427,0.000,4.257,4.257,4.257,90.0,90.0,90.0,-1.456
YbErO3,Yb,Er,FALSE,3,3,1.04,0.89,cubic,-2.823,0.529,0.200,14.966,0.000,4.214,4.214,4.214,90.0,90.0,90.0,-1.373
YbEuO3,Yb,Eu,FALSE,3,3,1.04,0.95,cubic,-2.033,0.728,0.001,14.521,0.000,4.172,4.172,4.172,90.0,90.0,90.0,-1.672
YbFeO3,Yb,Fe,TRUE,3,3,1.04,0.65,orthorhombic,-2.384,-0.123,0.799,10.360,0.000,5.221,5.341,7.429,90.0,90.0,90.0,1.336
YbGaO3,Yb,Ga,FALSE,3,3,1.04,0.62,orthorhombic,-2.373,0.080,-,10.817,0.000,5.210,5.548,7.485,90.0,90.0,90.0,-0.847
YbGdO3,Yb,Gd,FALSE,3,3,1.04,0.94,cubic,-2.686,0.614,0.200,15.920,0.000,4.302,4.302,4.302,90.0,90.0,90.0,-1.511
YbGeO3,Yb,Ge,FALSE,2,4,1.14,0.53,orthorhombic,-2.688,-0.098,-,10.184,2.697,5.201,5.289,7.404,90.0,90.0,90.0,4.023
YbHfO3,Yb,Hf,FALSE,2,4,1.14,0.71,orthorhombic,-3.816,-0.109,0.000,12.290,4.701,5.481,5.690,7.881,90.0,90.0,90.0,6.420
YbHgO3,Yb,Hg,FALSE,not balanced,not balanced,1.04,1.11,cubic,-1.118,0.467,-,13.903,0.000,4.112,4.112,4.112,90.0,90.0,90.0,-1.328
YbHoO3,Yb,Ho,FALSE,3,3,1.04,0.90,cubic,-2.792,0.548,0.200,15.159,0.000,4.232,4.232,4.232,90.0,90.0,90.0,-1.429
YbInO3,Yb,In,FALSE,3,3,1.04,0.80,orthorhombic,-2.189,0.136,-,12.736,0.000,5.696,5.973,7.488,90.0,90.0,90.0,-1.399
YbIrO3,Yb,Ir,FALSE,2,4,1.14,0.63,orthorhombic,-2.106,-0.064,0.048,11.119,0.000,5.168,5.700,7.550,90.0,90.0,90.0,0.609
YbKO3,Yb,K,FALSE,not balanced,not balanced,1.04,1.38,cubic,-0.470,1.582,-,14.700,0.000,4.189,4.189,4.189,90.0,90.0,90.0,-3.898
YbLaO3,Yb,La,FALSE,3,3,1.04,1.03,cubic,-2.533,0.727,0.189,17.574,0.000,4.446,4.446,4.446,90.0,90.0,90.0,-1.381
YbLiO3,Yb,Li,FALSE,not balanced,not balanced,1.04,0.76,cubic,-1.546,0.573,-,9.394,0.000,3.608,3.608,3.608,90.0,90.0,90.0,-1.844
YbLuO3,Yb,Lu,FALSE,3,3,1.04,0.86,orthorhombic,-3.244,0.140,0.200,13.155,0.000,5.745,5.968,7.674,90.0,90.0,90.0,-1.221
YbMgO3,Yb,Mg,FALSE,not balanced,not balanced,1.04,0.72,orthorhombic,-2.352,0.248,-,11.036,0.000,3.944,6.760,8.278,90.0,90.0,90.0,-1.575
YbMnO3,Yb,Mn,TRUE,2,4,1.14,0.53,orthorhombic,-2.610,-0.078,0.600,10.224,0.700,5.193,5.322,7.398,90.0,90.0,90.0,1.429
YbMoO3,Yb,Mo,FALSE,2,4,1.14,0.65,orthorhombic,-2.758,-0.062,0.072,11.478,0.000,5.329,5.605,7.685,90.0,90.0,90.0,4.233
YbNaO3,Yb,Na,FALSE,not balanced,not balanced,1.04,1.02,orthorhombic,-1.791,0.239,-,13.181,0.000,5.879,6.219,7.210,90.0,90.0,90.0,-6.069
YbNbO3,Yb,Nb,FALSE,2,4,1.14,0.68,orthorhombic,-3.157,-0.122,0.003,12.034,0.000,5.432,5.661,7.826,90.0,90.0,90.0,5.047
YbNdO3,Yb,Nd,FALSE,3,3,1.04,0.98,cubic,-2.492,0.785,0.200,17.070,0.000,4.403,4.403,4.403,90.0,90.0,90.0,-1.651
YbNiO3,Yb,Ni,TRUE,3,3,1.04,0.60,orthorhombic,-1.873,0.027,0.000,9.982,0.000,5.126,5.319,7.323,90.0,90.0,90.0,-0.017
YbNpO3,Yb,Np,FALSE,element not in BV,element not in BV,1.04,0.86,cubic,-2.937,0.693,0.600,16.614,0.000,4.363,4.363,4.363,90.0,90.0,90.0,3.523
YbOsO3,Yb,Os,FALSE,element not in BV,element not in BV,1.04,0.57,orthorhombic,-2.188,-0.088,0.167,11.096,0.000,5.182,5.655,7.574,90.0,90.0,90.0,1.732
YbPaO3,Yb,Pa,FALSE,element not in BV,element not in BV,1.04,0.91,orthorhombic,-3.308,-0.045,0.200,15.125,2.527,5.850,6.086,8.497,90.0,90.0,90.0,5.200
YbPbO3,Yb,Pb,FALSE,2,4,1.14,0.78,orthorhombic,-2.157,0.024,-,13.428,1.206,5.613,5.889,8.125,90.0,90.0,90.0,1.197
YbPdO3,Yb,Pd,FALSE,2,4,1.14,0.62,orthorhombic,-1.894,-0.101,-,11.217,0.661,5.239,5.650,7.579,90.0,90.0,90.0,-0.557
YbPmO3,Yb,Pm,FALSE,element not in BV,element not in BV,1.04,0.97,cubic,-2.549,0.693,0.200,16.645,0.000,4.366,4.366,4.366,90.0,90.0,90.0,-1.616
YbPrO3,Yb,Pr,FALSE,2,4,1.14,0.85,cubic,-2.441,0.751,0.200,17.502,0.000,4.440,4.440,4.440,90.0,90.0,90.0,-1.717
YbPtO3,Yb,Pt,FALSE,element not in BV,element not in BV,1.04,0.67,orthorhombic,-1.980,-0.133,0.001,11.319,0.932,5.227,5.704,7.593,90.0,90.0,90.0,-0.622
YbPuO3,Yb,Pu,FALSE,element not in BV,element not in BV,1.04,0.83,orthorhombic,-3.469,-0.107,0.800,14.265,1.952,5.729,5.981,8.327,90.0,90.0,90.0,2.783
YbRbO3,Yb,Rb,FALSE,not balanced,not balanced,1.04,1.52,cubic,-0.485,1.555,-,15.449,0.000,4.259,4.259,4.259,90.0,90.0,90.0,-2.986
YbReO3,Yb,Re,FALSE,2,4,1.14,0.63,orthorhombic,-2.419,0.009,-0.007,11.283,0.000,5.266,5.624,7.620,90.0,90.0,90.0,2.418
YbRhO3,Yb,Rh,FALSE,2,4,1.14,0.60,orthorhombic,-2.115,-0.089,0.200,11.016,0.000,5.189,5.630,7.541,90.0,90.0,90.0,-
YbRuO3,Yb,Ru,FALSE,2,4,1.14,0.62,orthorhombic,-2.246,-0.083,0.346,11.060,0.000,5.232,5.586,7.569,90.0,90.0,90.0,2.043
YbSbO3,Yb,Sb,FALSE,3,3,1.04,0.76,orthorhombic,-2.404,-0.009,-,12.953,0.000,5.543,5.830,8.016,90.0,90.0,90.0,2.452
YbScO3,Yb,Sc,FALSE,3,3,1.04,0.75,orthorhombic,-3.209,0.098,0.200,12.182,0.000,5.524,5.757,7.662,90.0,90.0,90.0,-1.039
YbSiO3,Yb,Si,FALSE,3,3,1.04,0.40,rhombohedral,-3.279,-0.032,-,8.867,4.854,4.996,4.996,4.996,60.3,60.3,60.3,6.309
YbSmO3,Yb,Sm,FALSE,3,3,1.04,0.96,cubic,-2.583,0.671,0.200,16.464,0.000,4.350,4.350,4.350,90.0,90.0,90.0,-1.644
YbSnO3,Yb,Sn,FALSE,2,4,1.14,0.69,orthorhombic,-2.686,-0.105,-,12.170,2.745,5.456,5.677,7.858,90.0,90.0,90.0,3.351
YbSrO3,Yb,Sr,FALSE,not balanced,not balanced,1.04,1.18,cubic,-1.585,1.114,-,16.658,0.000,4.367,4.367,4.367,90.0,90.0,90.0,-3.446
YbTaO3,Yb,Ta,FALSE,2,4,1.14,0.68,orthorhombic,-3.249,-0.086,0.002,11.895,0.000,5.410,5.639,7.798,90.0,90.0,90.0,5.258
YbTbO3,Yb,Tb,FALSE,2,4,1.14,0.76,cubic,-2.593,0.591,0.200,15.695,0.000,4.281,4.281,4.281,90.0,90.0,90.0,-1.472
YbTcO3,Yb,Tc,FALSE,element not in BV,element not in BV,1.04,0.60,orthorhombic,-2.501,-0.077,0.326,11.202,0.000,5.261,5.592,7.615,90.0,90.0,90.0,2.947
YbTeO3,Yb,Te,FALSE,2,4,1.14,0.97,orthorhombic,-2.163,0.145,-,13.440,0.212,5.596,5.928,8.103,90.0,90.0,90.0,2.574
YbThO3,Yb,Th,FALSE,2,4,1.14,0.94,cubic,-3.229,0.716,0.000,18.729,1.129,4.541,4.541,4.541,90.0,90.0,90.0,4.825
YbTiO3,Yb,Ti,TRUE,2,4,1.14,0.61,orthorhombic,-3.528,-0.128,0.000,10.921,2.364,5.298,5.449,7.566,90.0,90.0,90.0,5.064
YbTlO3,Yb,Tl,FALSE,3,3,1.04,0.89,orthorhombic,-1.731,0.141,-,13.496,0.000,5.603,5.994,8.038,90.0,90.0,90.0,-1.324
YbTmO3,Yb,Tm,FALSE,3,3,1.04,0.88,cubic,-2.866,0.503,0.200,14.722,0.000,4.191,4.191,4.191,90.0,90.0,90.0,-1.312
YbUO3,Yb,U,FALSE,2,4,1.14,0.89,cubic,-3.007,0.688,0.346,16.839,0.000,4.383,4.383,4.383,90.0,90.0,90.0,4.677
YbVO3,Yb,V,TRUE,2,4,1.14,0.58,orthorhombic,-3.073,0.005,0.200,10.585,0.346,5.228,5.407,7.490,90.0,90.0,90.0,3.823
YbWO3,Yb,W,FALSE,2,4,1.14,0.66,orthorhombic,-2.734,-0.024,0.042,11.555,0.000,5.326,5.633,7.703,90.0,90.0,90.0,4.040
YbYO3,Yb,Y,FALSE,3,3,1.04,0.90,cubic,-2.719,0.588,0.200,15.535,0.000,4.267,4.267,4.267,90.0,90.0,90.0,-1.615
Yb2O3,Yb,Yb,FALSE,3,3,1.04,0.87,cubic,-2.123,0.684,-,13.648,0.000,4.086,4.086,4.086,90.0,90.0,90.0,-1.835
YbZnO3,Yb,Zn,FALSE,not balanced,not balanced,1.04,0.74,orthorhombic,-1.869,0.194,-,10.848,0.000,5.258,5.541,7.447,90.0,90.0,90.0,-1.072
YbZrO3,Yb,Zr,FALSE,2,4,1.14,0.72,orthorhombic,-3.661,-0.078,0.000,12.652,4.217,5.525,5.756,7.958,90.0,90.0,90.0,5.935
ZnAcO3,Zn,Ac,FALSE,element not in BV,element not in BV,0.90,1.12,orthorhombic,-2.280,0.170,0.200,15.115,0.000,5.779,6.011,8.703,90.0,90.0,90.0,-3.996
ZnAgO3,Zn,Ag,FALSE,not balanced,not balanced,0.90,0.95,cubic,0.098,0.870,-,12.512,0.000,3.970,3.970,3.970,90.0,90.0,90.0,-3.034
ZnAlO3,Zn,Al,FALSE,not balanced,not balanced,0.90,0.54,cubic,-1.756,0.578,-,9.662,0.000,3.642,3.642,3.642,90.0,90.0,90.0,-1.346
ZnAsO3,Zn,As,FALSE,not balanced,not balanced,0.90,0.52,cubic,-0.916,0.656,-,10.665,0.000,3.764,3.764,3.764,90.0,90.0,90.0,1.044
ZnAuO3,Zn,Au,FALSE,element not in BV,element not in BV,0.90,0.93,cubic,0.060,0.861,-,12.799,0.000,4.000,4.000,4.000,90.0,90.0,90.0,-1.671
ZnBO3,Zn,B,FALSE,not balanced,not balanced,0.90,0.27,cubic,-0.874,1.152,-,7.457,0.000,3.341,3.341,3.341,90.0,90.0,90.0,-2.116
ZnBaO3,Zn,Ba,FALSE,not balanced,not balanced,0.90,1.35,orthorhombic,-1.712,0.219,-,16.147,2.081,6.108,6.555,8.065,90.0,90.0,90.0,-8.098
ZnBeO3,Zn,Be,FALSE,not balanced,not balanced,0.90,0.45,cubic,-1.002,0.844,-,8.176,0.000,3.445,3.445,3.445,90.0,90.0,90.0,-3.563
ZnBiO3,Zn,Bi,FALSE,not balanced,not balanced,0.90,0.90,cubic,-0.663,0.767,-,14.685,0.000,4.187,4.187,4.187,90.0,90.0,90.0,-
ZnCaO3,Zn,Ca,FALSE,not balanced,not balanced,0.90,1.00,orthorhombic,-1.804,0.159,-,12.398,1.966,5.807,5.954,7.171,90.0,90.0,90.0,-6.668
ZnCdO3,Zn,Cd,FALSE,not balanced,not balanced,0.90,0.95,cubic,-0.049,1.105,-,13.326,0.000,4.054,4.054,4.054,90.0,90.0,90.0,-4.308
ZnCeO3,Zn,Ce,FALSE,2,4,0.90,0.87,orthorhombic,-2.228,0.192,0.200,14.337,0.626,5.515,5.978,8.697,90.0,90.0,90.0,-4.988
ZnCoO3,Zn,Co,FALSE,2,4,0.90,0.53,cubic,-0.659,0.627,0.501,9.843,0.000,3.665,3.665,3.665,90.0,90.0,90.0,-1.336
ZnCrO3,Zn,Cr,FALSE,2,4,0.90,0.55,cubic,-1.335,0.618,0.398,10.405,0.000,3.733,3.733,3.733,90.0,90.0,90.0,-0.105
ZnCsO3,Zn,Cs,FALSE,not balanced,not balanced,0.90,1.67,cubic,0.525,1.827,-,16.919,0.000,4.390,4.390,4.390,90.0,90.0,90.0,-10.323
ZnCuO3,Zn,Cu,FALSE,not balanced,not balanced,0.90,0.68,cubic,-0.352,0.630,-,9.967,0.000,3.680,3.680,3.680,90.0,90.0,90.0,-2.402
ZnDyO3,Zn,Dy,FALSE,not balanced,not balanced,0.90,0.99,cubic,-1.470,1.115,-0.219,15.601,0.000,4.273,4.273,4.273,90.0,90.0,90.0,-3.959
ZnErO3,Zn,Er,FALSE,not balanced,not balanced,0.90,0.89,cubic,-1.530,1.078,-0.214,15.258,0.000,4.241,4.241,4.241,90.0,90.0,90.0,-3.753
ZnEuO3,Zn,Eu,FALSE,not balanced,not balanced,0.90,1.06,orthorhombic,-1.942,0.076,0.000,12.944,2.185,5.884,6.038,7.287,90.0,90.0,90.0,-6.161
ZnFeO3,Zn,Fe,FALSE,2,4,0.90,0.59,cubic,-0.970,0.562,0.798,10.281,0.000,3.718,3.718,3.718,90.0,90.0,90.0,-0.750
ZnGaO3,Zn,Ga,FALSE,not balanced,not balanced,0.90,0.62,cubic,-0.976,0.767,-,10.793,0.000,3.779,3.779,3.779,90.0,90.0,90.0,-2.607
ZnGdO3,Zn,Gd,FALSE,not balanced,not balanced,0.90,0.94,cubic,-1.406,1.150,-0.225,16.173,0.000,4.324,4.324,4.324,90.0,90.0,90.0,-4.185
ZnGeO3,Zn,Ge,FALSE,2,4,0.90,0.53,cubic,-1.247,0.586,-,10.047,0.000,3.690,3.690,3.690,90.0,90.0,90.0,1.669
ZnHfO3,Zn,Hf,FALSE,2,4,0.90,0.71,cubic,-2.279,0.684,0.000,13.271,0.000,4.048,4.048,4.048,90.0,90.0,90.0,0.175
ZnHgO3,Zn,Hg,FALSE,not balanced,not balanced,0.90,1.11,cubic,0.194,1.036,-,13.822,0.000,4.104,4.104,4.104,90.0,90.0,90.0,-3.539
ZnHoO3,Zn,Ho,FALSE,not balanced,not balanced,0.90,0.90,cubic,-1.483,1.114,-0.005,15.400,0.000,4.254,4.254,4.254,90.0,90.0,90.0,-4.043
ZnInO3,Zn,In,FALSE,not balanced,not balanced,0.90,0.80,cubic,-0.591,0.990,-,13.507,0.000,4.072,4.072,4.072,90.0,90.0,90.0,-3.517
ZnIrO3,Zn,Ir,FALSE,2,4,0.90,0.63,cubic,-0.536,0.762,0.037,11.674,0.000,3.879,3.879,3.879,90.0,90.0,90.0,0.436
ZnKO3,Zn,K,FALSE,not balanced,not balanced,0.90,1.38,cubic,0.861,2.170,-,14.808,0.000,4.199,4.199,4.199,90.0,90.0,90.0,-14.143
ZnLaO3,Zn,La,FALSE,not balanced,not balanced,0.90,1.03,orthorhombic,-2.333,0.183,0.200,14.238,0.656,5.439,5.977,8.759,90.0,90.0,90.0,-4.393
ZnLiO3,Zn,Li,FALSE,not balanced,not balanced,0.90,0.76,cubic,-0.228,1.146,-,8.923,0.000,3.547,3.547,3.547,90.0,90.0,90.0,-5.500
ZnLuO3,Zn,Lu,FALSE,not balanced,not balanced,0.90,0.86,cubic,-1.622,1.019,-0.207,14.623,0.000,4.182,4.182,4.182,90.0,90.0,90.0,-3.418
ZnMgO3,Zn,Mg,FALSE,not balanced,not balanced,0.90,0.72,cubic,-0.859,0.997,-,11.011,0.000,3.804,3.804,3.804,90.0,90.0,90.0,-3.967
ZnMnO3,Zn,Mn,FALSE,2,4,0.90,0.53,cubic,-1.171,0.539,0.632,10.190,0.000,3.707,3.707,3.707,90.0,90.0,90.0,-0.703
ZnMoO3,Zn,Mo,FALSE,2,4,0.90,0.65,orthorhombic,-1.746,0.221,0.400,10.706,0.000,5.262,5.266,7.728,90.0,90.0,90.0,3.816
ZnNaO3,Zn,Na,FALSE,not balanced,not balanced,0.90,1.02,cubic,0.409,1.695,-,12.260,0.000,3.943,3.943,3.943,90.0,90.0,90.0,-5.226
ZnNbO3,Zn,Nb,FALSE,2,4,0.90,0.68,rhombohedral,-2.159,0.165,0.186,11.277,0.000,5.444,5.444,5.444,59.5,59.5,59.5,-
ZnNdO3,Zn,Nd,FALSE,not balanced,not balanced,0.90,0.98,orthorhombic,-2.275,0.258,0.200,13.873,0.509,5.458,5.847,8.694,90.0,90.0,90.0,-4.769
ZnNiO3,Zn,Ni,FALSE,2,4,0.90,0.48,cubic,-0.484,0.673,-0.004,9.823,0.000,3.662,3.662,3.662,90.0,90.0,90.0,-1.995
ZnNpO3,Zn,Np,FALSE,element not in BV,element not in BV,0.90,0.86,cubic,-1.999,0.887,0.391,15.615,0.000,4.274,4.274,4.274,90.0,90.0,90.0,-0.126
ZnOsO3,Zn,Os,FALSE,element not in BV,element not in BV,0.90,0.57,cubic,-0.793,0.563,0.027,11.573,0.000,3.868,3.868,3.868,90.0,90.0,90.0,3.067
ZnPaO3,Zn,Pa,FALSE,element not in BV,element not in BV,0.90,0.91,rhombohedral,-2.497,0.021,0.200,14.663,1.523,6.136,6.136,6.136,55.6,55.6,55.6,3.359
ZnPbO3,Zn,Pb,FALSE,2,4,0.90,0.78,rhombohedral,-1.266,0.062,-,12.801,0.218,5.778,5.778,5.778,57.3,57.3,57.3,-2.514
ZnPdO3,Zn,Pd,FALSE,2,4,0.90,0.62,cubic,-0.230,0.689,-,11.813,0.000,3.894,3.894,3.894,90.0,90.0,90.0,-1.370
ZnPmO3,Zn,Pm,FALSE,element not in BV,element not in BV,0.90,0.97,orthorhombic,-2.262,0.236,0.200,13.211,0.000,5.494,5.734,8.386,90.0,90.0,90.0,-4.559
ZnPrO3,Zn,Pr,FALSE,2,4,0.90,0.85,orthorhombic,-2.255,0.193,0.200,14.103,0.655,5.493,5.873,8.743,90.0,90.0,90.0,-4.902
ZnPtO3,Zn,Pt,FALSE,element not in BV,element not in BV,0.90,0.67,cubic,-0.273,0.831,0.087,12.099,0.000,3.926,3.926,3.926,90.0,90.0,90.0,-0.921
ZnPuO3,Zn,Pu,FALSE,element not in BV,element not in BV,0.90,0.83,cubic,-1.827,0.789,0.685,15.805,0.000,4.291,4.291,4.291,90.0,90.0,90.0,-0.617
ZnRbO3,Zn,Rb,FALSE,not balanced,not balanced,0.90,1.52,cubic,0.834,2.130,-,15.259,0.000,4.241,4.241,4.241,90.0,90.0,90.0,-13.533
ZnReO3,Zn,Re,FALSE,2,4,0.90,0.63,rhombohedral,-1.439,0.245,0.000,10.380,0.000,5.145,5.145,5.145,63.5,63.5,63.5,3.253
ZnRhO3,Zn,Rh,FALSE,2,4,0.90,0.60,cubic,-0.519,0.763,0.258,11.576,0.000,3.868,3.868,3.868,90.0,90.0,90.0,-0.397
ZnRuO3,Zn,Ru,FALSE,2,4,0.90,0.62,cubic,-0.768,0.651,0.159,11.438,0.000,3.853,3.853,3.853,90.0,90.0,90.0,1.194
ZnSbO3,Zn,Sb,FALSE,2,4,0.90,0.68,cubic,-1.068,0.587,-,12.631,0.000,3.982,3.982,3.982,90.0,90.0,90.0,1.695
ZnScO3,Zn,Sc,FALSE,not balanced,not balanced,0.90,0.75,cubic,-1.679,0.884,0.001,12.907,0.000,4.011,4.011,4.011,90.0,90.0,90.0,-2.964
ZnSiO3,Zn,Si,FALSE,2,4,0.90,0.40,cubic,-1.950,0.572,-,8.655,0.000,3.511,3.511,3.511,90.0,90.0,90.0,4.167
ZnSmO3,Zn,Sm,FALSE,not balanced,not balanced,0.90,0.96,orthorhombic,-2.311,0.199,0.200,13.484,0.543,5.451,5.759,8.590,90.0,90.0,90.0,-4.454
ZnSnO3,Zn,Sn,FALSE,2,4,0.90,0.69,cubic,-1.124,0.708,-,12.764,0.000,3.996,3.996,3.996,90.0,90.0,90.0,-0.123
ZnSrO3,Zn,Sr,FALSE,not balanced,not balanced,0.90,1.18,orthorhombic,-1.764,0.191,-,14.115,2.076,5.974,6.230,7.585,90.0,90.0,90.0,-8.333
ZnTaO3,Zn,Ta,FALSE,2,4,0.90,0.68,rhombohedral,-2.258,0.272,0.004,11.069,0.000,5.326,5.326,5.326,61.6,61.6,61.6,-
ZnTbO3,Zn,Tb,FALSE,2,4,0.90,0.76,cubic,-1.307,1.133,-0.215,15.858,0.000,4.296,4.296,4.296,90.0,90.0,90.0,-4.079
ZnTcO3,Zn,Tc,FALSE,element not in BV,element not in BV,0.90,0.60,cubic,-1.145,0.535,-0.001,11.524,0.000,3.862,3.862,3.862,90.0,90.0,90.0,2.693
ZnTeO3,Zn,Te,FALSE,2,4,0.90,0.97,cubic,-0.742,0.718,-,13.527,0.000,4.074,4.074,4.074,90.0,90.0,90.0,-0.011
ZnThO3,Zn,Th,FALSE,2,4,0.90,0.94,cubic,-2.064,1.138,-0.105,18.388,0.000,4.513,4.513,4.513,90.0,90.0,90.0,-2.511
ZnTiO3,Zn,Ti,FALSE,2,4,0.90,0.61,cubic,-2.074,0.542,0.000,11.208,0.000,3.827,3.827,3.827,90.0,90.0,90.0,1.342
ZnTlO3,Zn,Tl,FALSE,not balanced,not balanced,0.90,1.20,cubic,-0.069,1.059,-,14.328,0.000,4.153,4.153,4.153,90.0,90.0,90.0,-3.973
ZnTmO3,Zn,Tm,FALSE,not balanced,not balanced,0.90,0.96,cubic,-1.554,1.071,0.005,14.955,0.000,4.213,4.213,4.213,90.0,90.0,90.0,-3.788
ZnUO3,Zn,U,FALSE,2,4,0.90,0.89,cubic,-2.342,0.609,0.114,15.963,0.000,4.306,4.306,4.306,90.0,90.0,90.0,1.935
ZnVO3,Zn,V,FALSE,2,4,0.90,0.58,cubic,-1.646,0.515,-0.164,10.546,0.000,3.750,3.750,3.750,90.0,90.0,90.0,1.518
ZnWO3,Zn,W,FALSE,2,4,0.90,0.66,rhombohedral,-1.731,0.240,0.003,10.608,0.000,5.180,5.180,5.180,63.6,63.6,63.6,4.632
ZnYO3,Zn,Y,FALSE,not balanced,not balanced,0.90,0.90,cubic,-1.436,1.128,0.216,15.857,0.000,4.296,4.296,4.296,90.0,90.0,90.0,-4.032
ZnYbO3,Zn,Yb,FALSE,not balanced,not balanced,0.90,0.95,orthorhombic,-1.940,0.123,-,11.982,2.021,5.776,5.878,7.058,90.0,90.0,90.0,-5.565
Zn2O3,Zn,Zn,FALSE,not balanced,not balanced,0.90,0.74,cubic,-0.443,0.876,-,10.791,0.000,3.779,3.779,3.779,90.0,90.0,90.0,-3.345
ZnZrO3,Zn,Zr,FALSE,2,4,0.90,0.72,cubic,-2.084,0.756,0.001,13.860,0.000,4.108,4.108,4.108,90.0,90.0,90.0,-0.544
ZrAcO3,Zr,Ac,FALSE,element not in BV,element not in BV,0.89,1.12,orthorhombic,-3.152,0.282,0.000,16.054,0.000,6.077,6.412,8.241,90.0,90.0,90.0,-2.736
ZrAgO3,Zr,Ag,FALSE,not balanced,not balanced,0.89,0.95,orthorhombic,-2.119,0.167,0.000,12.831,0.000,5.175,5.471,9.063,90.0,90.0,90.0,-2.152
ZrAlO3,Zr,Al,FALSE,3,3,0.89,0.54,orthorhombic,-2.998,0.302,0.199,9.959,0.000,5.160,5.360,7.202,90.0,90.0,90.0,5.220
ZrAsO3,Zr,As,FALSE,3,3,0.89,0.58,cubic,-1.202,1.460,0.267,12.281,0.000,3.945,3.945,3.945,90.0,90.0,90.0,0.094
ZrAuO3,Zr,Au,FALSE,element not in BV,element not in BV,0.89,0.93,cubic,-0.533,1.741,0.164,13.488,0.000,4.070,4.070,4.070,90.0,90.0,90.0,-3.832
ZrBO3,Zr,B,FALSE,4,2,0.89,0.27,cubic,-1.921,1.162,0.000,7.996,0.000,3.419,3.419,3.419,90.0,90.0,90.0,4.306
ZrBaO3,Zr,Ba,FALSE,not balanced,not balanced,0.89,1.35,orthorhombic,-3.166,0.311,0.000,18.714,3.438,6.082,6.180,9.958,90.0,90.0,90.0,-3.113
ZrBeO3,Zr,Be,FALSE,4,2,0.89,0.45,cubic,-2.706,0.661,0.000,8.145,0.944,3.440,3.440,3.440,90.0,90.0,90.0,3.630
ZrBiO3,Zr,Bi,FALSE,1,5,0.89,0.76,cubic,-0.845,1.826,0.341,16.103,0.000,4.318,4.318,4.318,90.0,90.0,90.0,-1.949
ZrCaO3,Zr,Ca,FALSE,not balanced,not balanced,0.89,1.00,orthorhombic,-3.358,0.159,0.000,13.518,3.105,5.219,5.500,9.420,90.0,90.0,90.0,-
ZrCdO3,Zr,Cd,FALSE,not balanced,not balanced,0.89,0.95,cubic,-0.876,1.798,0.021,13.548,0.000,4.076,4.076,4.076,90.0,90.0,90.0,-5.809
ZrCeO3,Zr,Ce,FALSE,not balanced,not balanced,0.89,0.94,orthorhombic,-3.118,0.333,0.000,14.898,0.000,6.080,6.210,7.892,90.0,90.0,90.0,-8.487
ZrCoO3,Zr,Co,FALSE,3,3,0.89,0.61,cubic,-1.774,0.903,-0.116,9.764,0.000,3.655,3.655,3.655,90.0,90.0,90.0,1.235
ZrCrO3,Zr,Cr,FALSE,1,5,0.89,0.49,cubic,-2.191,0.816,0.502,10.805,0.000,3.780,3.780,3.780,90.0,90.0,90.0,2.431
ZrCsO3,Zr,Cs,FALSE,not balanced,not balanced,0.89,1.67,cubic,0.323,3.033,0.313,18.113,0.000,4.491,4.491,4.491,90.0,90.0,90.0,-8.142
ZrCuO3,Zr,Cu,FALSE,3,3,0.89,0.54,cubic,-1.531,0.971,0.000,10.115,0.000,3.698,3.698,3.698,90.0,90.0,90.0,-0.039
ZrDyO3,Zr,Dy,FALSE,not balanced,not balanced,0.89,0.99,cubic,-2.150,1.419,0.200,15.280,0.000,4.243,4.243,4.243,90.0,90.0,90.0,-4.930
ZrErO3,Zr,Er,FALSE,not balanced,not balanced,0.89,0.89,cubic,-2.252,1.340,0.199,14.777,0.000,4.196,4.196,4.196,90.0,90.0,90.0,-4.042
ZrEuO3,Zr,Eu,FALSE,not balanced,not balanced,0.89,1.06,orthorhombic,-3.408,0.283,0.000,14.504,3.534,5.803,5.904,8.466,90.0,90.0,90.0,-9.478
ZrFeO3,Zr,Fe,FALSE,3,3,0.89,0.65,cubic,-1.766,1.022,0.866,10.898,0.000,3.791,3.791,3.791,90.0,90.0,90.0,1.300
ZrGaO3,Zr,Ga,FALSE,3,3,0.89,0.62,cubic,-1.978,0.902,0.008,10.708,0.000,3.769,3.769,3.769,90.0,90.0,90.0,2.650
ZrGdO3,Zr,Gd,FALSE,not balanced,not balanced,0.89,0.94,cubic,-2.034,1.507,0.199,15.882,0.000,4.298,4.298,4.298,90.0,90.0,90.0,-5.804
ZrGeO3,Zr,Ge,FALSE,2,4,0.89,0.53,cubic,-1.553,1.206,0.272,11.129,0.000,3.818,3.818,3.818,90.0,90.0,90.0,1.155
ZrHfO3,Zr,Hf,FALSE,not balanced,not balanced,0.89,0.71,cubic,-2.568,0.844,0.389,13.396,0.000,4.061,4.061,4.061,90.0,90.0,90.0,3.708