Chemical formula,A,B,In literature,Valence A,Valence B,Radius A [ang],Radius B [ang],Lowest distortion,Formation energy [eV/atom],Stability [eV/atom],Magnetic moment [mu_B],Volume per atom [A^3/atom],Band gap [eV],a [ang],b [ang],c [ang],alpha [deg],beta [deg],gamma [deg],Vacancy energy [eV/O atom]
HoPuO3,Ho,Pu,FALSE,element not in BV,element not in BV,1.12,0.83,cubic,-2.600,1.154,0.908,16.588,0.000,4.361,4.361,4.361,90.0,90.0,90.0,-0.757
HoRbO3,Ho,Rb,FALSE,not balanced,not balanced,1.12,1.52,orthorhombic,-2.141,0.364,0.000,17.950,1.164,6.129,6.181,9.477,90.0,90.0,90.0,-8.649
HoReO3,Ho,Re,FALSE,2,4,1.12,0.63,cubic,-1.879,0.860,0.163,12.242,0.000,3.941,3.941,3.941,90.0,90.0,90.0,0.068
HoRhO3,Ho,Rh,TRUE,2,4,1.12,0.60,cubic,-1.831,0.573,0.000,11.935,0.000,3.908,3.908,3.908,90.0,90.0,90.0,-0.263
HoRuO3,Ho,Ru,FALSE,2,4,1.12,0.62,cubic,-1.885,0.622,0.130,11.932,0.000,3.907,3.907,3.907,90.0,90.0,90.0,0.556
HoSbO3,Ho,Sb,FALSE,3,3,1.12,0.76,cubic,-1.706,1.021,0.000,14.823,0.000,4.201,4.201,4.201,90.0,90.0,90.0,0.720
HoScO3,Ho,Sc,TRUE,3,3,1.12,0.75,cubic,-3.293,0.551,0.000,12.606,2.543,3.980,3.980,3.980,90.0,90.0,90.0,5.011
HoSiO3,Ho,Si,FALSE,3,3,1.12,0.40,cubic,-2.626,0.741,0.001,9.905,0.000,3.672,3.672,3.672,90.0,90.0,90.0,4.541
HoSmO3,Ho,Sm,FALSE,not balanced,not balanced,1.12,0.96,cubic,-2.604,1.183,0.000,16.798,0.890,4.379,4.379,4.379,90.0,90.0,90.0,-1.293
HoSnO3,Ho,Sn,FALSE,2,4,1.12,0.69,cubic,-1.982,0.875,0.000,13.735,0.000,4.095,4.095,4.095,90.0,90.0,90.0,2.228
HoSrO3,Ho,Sr,FALSE,not balanced,not balanced,1.12,1.18,orthorhombic,-2.911,0.263,0.200,16.469,0.000,5.764,5.805,9.845,90.0,90.0,90.0,-3.942
HoTaO3,Ho,Ta,FALSE,2,4,1.12,0.68,cubic,-2.654,0.684,0.001,12.806,0.000,4.001,4.001,4.001,90.0,90.0,90.0,3.002
HoTbO3,Ho,Tb,FALSE,2,4,1.12,0.76,cubic,-2.688,1.029,0.000,15.722,1.246,4.284,4.284,4.284,90.0,90.0,90.0,0.263
HoTcO3,Ho,Tc,FALSE,element not in BV,element not in BV,1.12,0.60,cubic,-2.057,0.645,0.314,12.110,0.000,3.927,3.927,3.927,90.0,90.0,90.0,1.029
HoTeO3,Ho,Te,FALSE,2,4,1.12,0.97,cubic,-1.395,1.171,0.003,15.135,0.000,4.230,4.230,4.230,90.0,90.0,90.0,0.712
HoThO3,Ho,Th,FALSE,2,4,1.12,0.94,cubic,-2.753,1.091,0.008,18.864,0.000,4.552,4.552,4.552,90.0,90.0,90.0,2.036
HoTiO3,Ho,Ti,TRUE,2,4,1.12,0.61,orthorhombic,-3.468,0.030,0.200,11.369,0.000,5.280,5.658,7.611,90.0,90.0,90.0,4.640
HoTlO3,Ho,Tl,FALSE,not balanced,not balanced,1.12,1.20,orthorhombic,-2.287,0.118,0.000,13.943,1.110,5.534,5.895,8.549,90.0,90.0,90.0,0.482
HoTmO3,Ho,Tm,FALSE,not balanced,not balanced,1.12,0.96,cubic,-3.038,0.865,0.000,14.671,1.806,4.186,4.186,4.186,90.0,90.0,90.0,1.774
HoUO3,Ho,U,FALSE,2,4,1.12,0.89,cubic,-2.550,1.105,0.531,16.841,0.000,4.383,4.383,4.383,90.0,90.0,90.0,1.679
HoVO3,Ho,V,FALSE,2,4,1.12,0.58,orthorhombic,-3.276,-0.023,0.400,11.313,1.255,5.278,5.640,7.600,90.0,90.0,90.0,3.926
HoWO3,Ho,W,FALSE,2,4,1.12,0.66,cubic,-2.173,0.782,0.001,12.386,0.000,3.956,3.956,3.956,90.0,90.0,90.0,1.073
HoYO3,Ho,Y,FALSE,not balanced,not balanced,1.12,0.90,cubic,-2.851,0.990,0.000,15.423,1.438,4.256,4.256,4.256,90.0,90.0,90.0,0.644
HoYbO3,Ho,Yb,FALSE,not balanced,not balanced,1.12,0.95,cubic,-2.358,0.982,0.168,13.693,0.000,4.091,4.091,4.091,90.0,90.0,90.0,-2.026
HoZnO3,Ho,Zn,FALSE,not balanced,not balanced,1.12,0.74,orthorhombic,-2.453,0.143,0.000,11.178,0.000,5.227,5.746,7.443,90.0,90.0,90.0,-0.293
HoZrO3,Ho,Zr,FALSE,2,4,1.12,0.72,cubic,-2.936,0.645,0.000,13.982,0.000,4.120,4.120,4.120,90.0,90.0,90.0,4.086
InAcO3,In,Ac,FALSE,element not in BV,element not in BV,0.92,1.12,orthorhombic,-2.553,0.195,0.000,16.666,1.489,6.073,6.095,9.005,90.0,90.0,90.0,-3.620
InAgO3,In,Ag,FALSE,not balanced,not balanced,0.92,0.95,cubic,-0.273,0.762,-,13.075,0.000,4.028,4.028,4.028,90.0,90.0,90.0,-2.545
InAlO3,In,Al,FALSE,3,3,0.92,0.54,orthorhombic,-2.493,0.061,-,9.902,2.606,5.081,5.259,7.411,90.0,90.0,90.0,0.820
InAsO3,In,As,FALSE,3,3,0.92,0.58,cubic,-1.042,0.603,-,11.820,0.000,3.895,3.895,3.895,90.0,90.0,90.0,1.249
InAuO3,In,Au,FALSE,element not in BV,element not in BV,0.92,0.93,cubic,-0.268,0.795,-,13.543,0.000,4.076,4.076,4.076,90.0,90.0,90.0,-2.052
InBO3,In,B,FALSE,3,3,0.92,0.27,cubic,-1.122,1.178,-,8.071,0.000,3.430,3.430,3.430,90.0,90.0,90.0,1.385
InBaO3,In,Ba,FALSE,not balanced,not balanced,0.92,1.35,orthorhombic,-1.846,0.274,-,18.208,0.000,5.838,6.550,9.524,90.0,90.0,90.0,-6.501
InBeO3,In,Be,FALSE,not balanced,not balanced,0.92,0.45,cubic,-1.373,0.736,-,8.713,0.000,3.519,3.519,3.519,90.0,90.0,90.0,-2.279
InBiO3,In,Bi,FALSE,1,5,0.92,0.76,cubic,-0.946,0.713,-,15.596,0.000,4.272,4.272,4.272,90.0,90.0,90.0,-1.408
InCaO3,In,Ca,FALSE,not balanced,not balanced,0.92,1.00,cubic,-0.941,1.289,-,15.369,0.000,4.251,4.251,4.251,90.0,90.0,90.0,-5.879
InCdO3,In,Cd,FALSE,not balanced,not balanced,0.92,0.95,cubic,-0.419,1.020,-,13.847,0.000,4.106,4.106,4.106,90.0,90.0,90.0,-4.328
InCeO3,In,Ce,FALSE,not balanced,not balanced,0.92,0.94,cubic,-1.494,1.192,-0.013,18.567,0.000,4.528,4.528,4.528,90.0,90.0,90.0,-4.930
InCoO3,In,Co,FALSE,3,3,0.92,0.61,cubic,-0.986,0.563,0.004,10.303,0.000,3.721,3.721,3.721,90.0,90.0,90.0,0.504
InCrO3,In,Cr,FALSE,1,5,0.92,0.49,cubic,-1.622,0.541,0.543,11.160,0.000,3.821,3.821,3.821,90.0,90.0,90.0,0.425
InCsO3,In,Cs,FALSE,not balanced,not balanced,0.92,1.67,orthorhombic,-0.889,0.609,-,17.215,0.216,4.859,5.957,11.895,90.0,90.0,90.0,-
InCuO3,In,Cu,FALSE,3,3,0.92,0.54,cubic,-0.724,0.520,-,10.400,0.000,3.732,3.732,3.732,90.0,90.0,90.0,-1.222
InDyO3,In,Dy,FALSE,not balanced,not balanced,0.92,0.99,cubic,-1.807,1.040,-0.135,15.950,0.000,4.304,4.304,4.304,90.0,90.0,90.0,-4.266
InErO3,In,Er,FALSE,not balanced,not balanced,0.92,0.89,cubic,-1.866,1.004,-0.116,15.493,0.000,4.263,4.263,4.263,90.0,90.0,90.0,-4.052
InEuO3,In,Eu,FALSE,not balanced,not balanced,0.92,1.06,orthorhombic,-2.136,0.166,0.200,14.997,0.792,5.686,6.046,8.723,90.0,90.0,90.0,-5.739
InFeO3,In,Fe,FALSE,not balanced,not balanced,0.92,0.67,cubic,-1.160,0.587,0.897,12.758,0.000,3.996,3.996,3.996,90.0,90.0,90.0,-
InGaO3,In,Ga,FALSE,not balanced,not balanced,0.92,0.62,cubic,-1.338,0.635,-,11.877,0.000,3.901,3.901,3.901,90.0,90.0,90.0,-1.252
InGdO3,In,Gd,FALSE,not balanced,not balanced,0.92,0.94,cubic,-1.745,1.074,-0.167,16.491,0.000,4.353,4.353,4.353,90.0,90.0,90.0,-4.453
InGeO3,In,Ge,FALSE,2,4,0.92,0.53,orthorhombic,-1.499,0.290,-,11.666,0.000,5.320,5.507,7.963,90.0,90.0,90.0,2.283
InHfO3,In,Hf,FALSE,not balanced,not balanced,0.92,0.71,orthorhombic,-2.651,0.268,0.000,12.923,0.000,5.610,5.748,8.016,90.0,90.0,90.0,2.437
InHgO3,In,Hg,FALSE,not balanced,not balanced,0.92,1.11,cubic,-0.133,0.972,-,14.486,0.000,4.168,4.168,4.168,90.0,90.0,90.0,-3.965
InHoO3,In,Ho,FALSE,not balanced,not balanced,0.92,0.90,cubic,-1.837,1.022,-0.125,15.704,0.000,4.282,4.282,4.282,90.0,90.0,90.0,-4.168
In2O3,In,In,FALSE,not balanced,not balanced,0.92,0.80,orthorhombic,-1.738,0.106,-,12.563,0.753,5.467,5.603,8.203,90.0,90.0,90.0,-3.590
InIrO3,In,Ir,FALSE,1,5,0.92,0.57,cubic,-0.763,0.638,0.055,12.384,0.000,3.956,3.956,3.956,90.0,90.0,90.0,1.675
InKO3,In,K,FALSE,not balanced,not balanced,0.92,1.38,orthorhombic,-1.071,0.454,-,15.395,0.000,6.123,6.194,8.118,90.0,90.0,90.0,-11.284
InLaO3,In,La,FALSE,not balanced,not balanced,0.92,1.03,cubic,-1.644,1.135,-0.009,18.034,0.000,4.484,4.484,4.484,90.0,90.0,90.0,-4.398
InLiO3,In,Li,FALSE,not balanced,not balanced,0.92,0.76,cubic,-0.662,0.945,-,9.468,0.000,3.617,3.617,3.617,90.0,90.0,90.0,-3.899
InLuO3,In,Lu,FALSE,not balanced,not balanced,0.92,0.86,cubic,-1.961,0.942,-0.088,14.818,0.000,4.200,4.200,4.200,90.0,90.0,90.0,-3.591
InMgO3,In,Mg,FALSE,not balanced,not balanced,0.92,0.72,cubic,-1.274,0.835,-,11.178,0.000,3.823,3.823,3.823,90.0,90.0,90.0,-3.349
InMnO3,In,Mn,FALSE,3,3,0.92,0.65,rhombohedral,-1.799,0.142,0.800,11.094,0.000,5.391,5.391,5.391,60.1,60.1,60.1,-0.201
InMoO3,In,Mo,FALSE,1,5,0.92,0.61,cubic,-1.703,0.204,0.000,12.755,0.000,3.995,3.995,3.995,90.0,90.0,90.0,4.260
InNaO3,In,Na,FALSE,not balanced,not balanced,0.92,1.02,cubic,-0.019,1.537,-,12.437,0.000,3.962,3.962,3.962,90.0,90.0,90.0,-7.727
InNbO3,In,Nb,FALSE,1,5,0.92,0.64,tetragonal,-2.168,0.133,0.000,13.652,0.000,4.011,4.011,4.243,90.0,90.0,90.0,-
InNdO3,In,Nd,FALSE,not balanced,not balanced,0.92,0.98,cubic,-1.594,1.138,-0.327,18.209,0.000,4.499,4.499,4.499,90.0,90.0,90.0,-4.736
InNiO3,In,Ni,FALSE,3,3,0.92,0.60,cubic,-0.854,0.564,0.181,10.086,0.000,3.695,3.695,3.695,90.0,90.0,90.0,-1.396
InNpO3,In,Np,FALSE,element not in BV,element not in BV,0.92,0.86,cubic,-2.242,0.599,0.400,16.332,0.000,4.338,4.338,4.338,90.0,90.0,90.0,1.103
InOsO3,In,Os,FALSE,element not in BV,element not in BV,0.92,0.57,rhombohedral,-1.120,0.325,0.199,11.187,0.000,5.139,5.139,5.139,67.8,67.8,67.8,2.855
InPaO3,In,Pa,FALSE,element not in BV,element not in BV,0.92,0.91,cubic,-2.482,-0.008,0.000,17.137,2.563,4.409,4.409,4.409,90.0,90.0,90.0,-
InPbO3,In,Pb,FALSE,not balanced,not balanced,0.92,0.99,cubic,-0.763,0.775,-,15.141,0.000,4.230,4.230,4.230,90.0,90.0,90.0,-2.369
InPdO3,In,Pd,FALSE,not balanced,not balanced,0.92,0.75,cubic,-0.587,0.595,-,12.368,0.000,3.955,3.955,3.955,90.0,90.0,90.0,-1.282
InPmO3,In,Pm,FALSE,element not in BV,element not in BV,0.92,0.97,cubic,-1.638,1.123,-0.265,17.652,0.000,4.452,4.452,4.452,90.0,90.0,90.0,-4.673
InPrO3,In,Pr,FALSE,not balanced,not balanced,0.92,0.92,cubic,-1.542,1.168,0.004,18.688,0.000,4.538,4.538,4.538,90.0,90.0,90.0,-4.900
InPtO3,In,Pt,FALSE,element not in BV,element not in BV,0.92,0.67,cubic,-0.571,0.699,0.001,12.743,0.000,3.994,3.994,3.994,90.0,90.0,90.0,0.262
InPuO3,In,Pu,FALSE,element not in BV,element not in BV,0.92,0.83,cubic,-2.137,0.601,0.649,16.548,0.000,4.358,4.358,4.358,90.0,90.0,90.0,1.083
InRbO3,In,Rb,FALSE,not balanced,not balanced,0.92,1.52,orthorhombic,-1.057,0.436,-,17.265,0.000,5.917,5.969,9.777,90.0,90.0,90.0,-11.336
InReO3,In,Re,FALSE,1,5,0.92,0.58,cubic,-1.363,0.328,0.000,12.433,0.000,3.961,3.961,3.961,90.0,90.0,90.0,4.128
InRhO3,In,Rh,FALSE,not balanced,not balanced,0.92,0.61,cubic,-0.802,0.587,0.100,12.277,0.000,3.945,3.945,3.945,90.0,90.0,90.0,-0.092
InRuO3,In,Ru,FALSE,1,5,0.92,0.57,orthorhombic,-1.298,0.193,0.200,11.183,0.000,5.337,5.443,7.699,90.0,90.0,90.0,1.818
InSbO3,In,Sb,FALSE,1,5,0.92,0.60,tetragonal,-1.262,0.450,-,13.586,0.000,4.071,4.071,4.100,90.0,90.0,90.0,2.200
InScO3,In,Sc,FALSE,not balanced,not balanced,0.92,0.75,orthorhombic,-2.716,0.110,0.000,11.834,2.332,5.355,5.553,7.960,90.0,90.0,90.0,-2.530
InSiO3,In,Si,FALSE,2,4,0.92,0.40,cubic,-1.906,0.553,-,9.607,0.000,3.635,3.635,3.635,90.0,90.0,90.0,3.913
InSmO3,In,Sm,FALSE,not balanced,not balanced,0.92,0.96,cubic,-1.661,1.111,-0.223,17.280,0.000,4.421,4.421,4.421,90.0,90.0,90.0,-4.496
InSnO3,In,Sn,FALSE,not balanced,not balanced,0.92,0.69,orthorhombic,-1.574,0.241,-,13.284,0.000,5.602,5.698,8.322,90.0,90.0,90.0,1.311
InSrO3,In,Sr,FALSE,not balanced,not balanced,0.92,1.18,orthorhombic,-1.912,0.282,-,16.104,0.000,5.804,6.218,8.925,90.0,90.0,90.0,-7.129
InTaO3,In,Ta,FALSE,1,5,0.92,0.64,tetragonal,-2.355,0.160,0.000,13.135,0.000,4.023,4.023,4.057,90.0,90.0,90.0,-
InTbO3,In,Tb,FALSE,not balanced,not balanced,0.92,0.84,cubic,-1.645,1.057,-0.148,16.208,0.000,4.327,4.327,4.327,90.0,90.0,90.0,-4.360
InTcO3,In,Tc,FALSE,element not in BV,element not in BV,0.92,0.60,tetragonal,-1.341,0.346,0.000,12.315,0.000,3.940,3.953,3.953,90.0,90.0,90.0,-
InTeO3,In,Te,FALSE,2,4,0.92,0.97,cubic,-0.981,0.554,-,14.403,0.000,4.160,4.160,4.160,90.0,90.0,90.0,1.509
InThO3,In,Th,FALSE,not balanced,not balanced,0.92,0.94,cubic,-2.411,0.746,-0.149,18.845,0.000,4.550,4.550,4.550,90.0,90.0,90.0,0.258
InTiO3,In,Ti,FALSE,2,4,0.92,0.61,orthorhombic,-2.373,0.187,0.155,11.691,0.000,5.347,5.565,7.859,90.0,90.0,90.0,2.919
InTlO3,In,Tl,FALSE,not balanced,not balanced,0.92,1.20,orthorhombic,-1.246,0.144,-,13.624,0.000,5.574,5.696,8.582,90.0,90.0,90.0,-4.098
InTmO3,In,Tm,FALSE,not balanced,not balanced,0.92,0.96,cubic,-1.908,0.980,-0.106,15.230,0.000,4.239,4.239,4.239,90.0,90.0,90.0,-3.852
InUO3,In,U,FALSE,1,5,0.92,0.76,cubic,-2.665,0.241,0.200,16.707,1.969,4.371,4.371,4.371,90.0,90.0,90.0,-
InVO3,In,V,FALSE,2,4,0.92,0.58,rhombohedral,-2.129,0.109,0.400,11.215,0.327,5.418,5.418,5.418,59.9,59.9,59.9,1.484
InWO3,In,W,FALSE,1,5,0.92,0.62,cubic,-1.795,0.162,0.000,12.785,0.000,3.998,3.998,3.998,90.0,90.0,90.0,4.921
InYO3,In,Y,FALSE,not balanced,not balanced,0.92,0.90,cubic,-1.776,1.050,-0.136,16.177,0.000,4.325,4.325,4.325,90.0,90.0,90.0,-4.331
InYbO3,In,Yb,FALSE,not balanced,not balanced,0.92,0.95,cubic,-1.168,1.157,-,14.044,0.000,4.126,4.126,4.126,90.0,90.0,90.0,-5.144
InZnO3,In,Zn,FALSE,not balanced,not balanced,0.92,0.74,cubic,-0.823,0.759,-,11.111,0.000,3.816,3.816,3.816,90.0,90.0,90.0,-2.864
InZrO3,In,Zr,FALSE,not balanced,not balanced,0.92,0.72,rhombohedral,-2.498,0.297,0.000,13.359,0.000,5.698,5.698,5.698,60.9,60.9,60.9,2.912
IrAcO3,Ir,Ac,FALSE,element not in BV,element not in BV,0.63,1.12,rhombohedral,-1.891,0.378,0.000,15.782,0.302,5.783,5.783,5.783,67.2,67.2,67.2,-9.665
IrAgO3,Ir,Ag,FALSE,3,3,0.68,0.75,cubic,0.947,1.691,0.749,12.707,0.000,3.990,3.990,3.990,90.0,90.0,90.0,-9.786
IrAlO3,Ir,Al,FALSE,3,3,0.68,0.54,cubic,-1.035,1.076,0.011,9.602,0.000,3.635,3.635,3.635,90.0,90.0,90.0,-1.626
IrAsO3,Ir,As,FALSE,3,3,0.68,0.58,cubic,0.107,1.309,0.561,11.189,0.000,3.825,3.825,3.825,90.0,90.0,90.0,-0.510
IrAuO3,Ir,Au,FALSE,element not in BV,element not in BV,0.63,0.93,cubic,0.969,1.701,0.696,13.157,0.000,4.037,4.037,4.037,90.0,90.0,90.0,-8.348
IrBO3,Ir,B,FALSE,3,3,0.68,0.27,cubic,-0.128,1.663,-0.002,7.806,0.000,3.392,3.392,3.392,90.0,90.0,90.0,-0.705
IrBaO3,Ir,Ba,FALSE,not balanced,not balanced,0.63,1.35,rhombohedral,-1.608,0.240,0.200,18.094,0.000,6.147,6.147,6.147,64.6,64.6,64.6,-15.133
IrBeO3,Ir,Be,FALSE,4,2,0.63,0.45,cubic,-0.574,1.251,0.004,8.079,0.000,3.431,3.431,3.431,90.0,90.0,90.0,-3.711
IrBiO3,Ir,Bi,FALSE,not balanced,not balanced,0.63,0.90,cubic,0.311,1.552,0.530,14.855,0.000,4.204,4.204,4.204,90.0,90.0,90.0,-7.137
IrCaO3,Ir,Ca,FALSE,not balanced,not balanced,0.63,1.00,rhombohedral,-1.607,0.335,0.197,13.920,0.000,5.781,5.781,5.781,60.8,60.8,60.8,-12.476
IrCdO3,Ir,Cd,FALSE,not balanced,not balanced,0.63,0.95,cubic,0.781,1.914,0.784,13.633,0.000,4.085,4.085,4.085,90.0,90.0,90.0,-11.289
IrCeO3,Ir,Ce,FALSE,3,3,0.68,1.01,cubic,-0.255,1.984,0.819,18.353,0.000,4.511,4.511,4.511,90.0,90.0,90.0,-9.956
IrCoO3,Ir,Co,FALSE,3,3,0.68,0.61,cubic,0.152,1.310,0.228,9.790,0.000,3.658,3.658,3.658,90.0,90.0,90.0,-5.721
IrCrO3,Ir,Cr,FALSE,3,3,0.68,0.62,cubic,-0.477,1.243,0.527,10.890,0.000,3.790,3.790,3.790,90.0,90.0,90.0,-2.471
IrCsO3,Ir,Cs,FALSE,not balanced,not balanced,0.63,1.67,rhombohedral,-1.181,0.080,0.400,23.465,0.949,6.774,6.774,6.774,63.1,63.1,63.1,-
IrCuO3,Ir,Cu,FALSE,3,3,0.68,0.54,cubic,0.431,1.392,0.111,10.019,0.000,3.686,3.686,3.686,90.0,90.0,90.0,-6.058
IrDyO3,Ir,Dy,FALSE,3,3,0.68,0.91,cubic,-0.644,1.760,0.805,15.678,0.000,4.280,4.280,4.280,90.0,90.0,90.0,-8.381
IrErO3,Ir,Er,FALSE,3,3,0.68,0.89,cubic,-0.717,1.711,0.806,15.236,0.000,4.239,4.239,4.239,90.0,90.0,90.0,-7.964
IrEuO3,Ir,Eu,FALSE,3,3,0.68,0.95,rhombohedral,-1.774,0.323,0.200,15.125,0.000,6.062,6.062,6.062,58.3,58.3,58.3,-13.252
IrFeO3,Ir,Fe,FALSE,3,3,0.68,0.65,cubic,-0.072,1.231,1.576,10.929,0.000,3.795,3.795,3.795,90.0,90.0,90.0,-4.804
IrGaO3,Ir,Ga,FALSE,3,3,0.68,0.62,cubic,-0.219,1.310,0.415,10.655,0.000,3.763,3.763,3.763,90.0,90.0,90.0,-4.314
IrGdO3,Ir,Gd,FALSE,3,3,0.68,0.94,cubic,-0.563,1.812,0.819,16.172,0.000,4.324,4.324,4.324,90.0,90.0,90.0,-8.807
IrGeO3,Ir,Ge,FALSE,not balanced,not balanced,0.63,0.63,cubic,-0.260,1.193,0.608,10.544,0.000,3.750,3.750,3.750,90.0,90.0,90.0,-1.212
IrHfO3,Ir,Hf,FALSE,3,3,0.68,0.71,cubic,-1.384,1.238,0.607,13.331,0.000,4.055,4.055,4.055,90.0,90.0,90.0,-1.374
IrHgO3,Ir,Hg,FALSE,not balanced,not balanced,0.63,1.11,cubic,1.100,1.920,0.703,14.188,0.000,4.140,4.140,4.140,90.0,90.0,90.0,-11.278
IrHoO3,Ir,Ho,FALSE,3,3,0.68,0.90,cubic,-0.682,1.735,0.804,15.449,0.000,4.259,4.259,4.259,90.0,90.0,90.0,-8.170
IrInO3,Ir,In,FALSE,3,3,0.68,0.80,cubic,0.209,1.610,0.802,13.785,0.000,4.100,4.100,4.100,90.0,90.0,90.0,-7.545
Ir2O3,Ir,Ir,FALSE,3,3,0.68,0.68,cubic,0.431,1.389,0.565,11.848,0.000,3.898,3.898,3.898,90.0,90.0,90.0,-2.173
IrKO3,Ir,K,FALSE,not balanced,not balanced,0.63,1.38,rhombohedral,-1.139,0.186,0.400,18.059,0.818,6.326,6.326,6.326,60.4,60.4,60.4,-13.583
IrLaO3,Ir,La,FALSE,3,3,0.68,1.03,cubic,-0.390,1.950,0.811,17.797,0.000,4.464,4.464,4.464,90.0,90.0,90.0,-9.607
IrLiO3,Ir,Li,FALSE,not balanced,not balanced,0.63,0.76,orthorhombic,-1.079,0.299,-0.001,9.209,0.000,5.139,5.408,6.627,90.0,90.0,90.0,-7.648
IrLuO3,Ir,Lu,FALSE,3,3,0.68,0.86,cubic,-0.826,1.634,0.802,14.576,0.000,4.177,4.177,4.177,90.0,90.0,90.0,-7.297
IrMgO3,Ir,Mg,FALSE,4,2,0.63,0.72,cubic,-0.299,1.518,0.005,10.333,0.000,3.724,3.724,3.724,90.0,90.0,90.0,-7.240
IrMnO3,Ir,Mn,FALSE,3,3,0.68,0.65,cubic,-0.268,1.231,1.378,10.835,0.000,3.784,3.784,3.784,90.0,90.0,90.0,-4.604
IrMoO3,Ir,Mo,FALSE,3,3,0.68,0.69,cubic,-0.548,1.182,0.431,11.944,0.000,3.909,3.909,3.909,90.0,90.0,90.0,1.436
IrNaO3,Ir,Na,FALSE,not balanced,not balanced,0.63,1.02,rhombohedral,-1.080,0.252,0.400,14.392,0.499,5.910,5.910,5.910,59.4,59.4,59.4,-15.784
IrNbO3,Ir,Nb,FALSE,3,3,0.68,0.72,cubic,-0.984,1.158,0.428,12.698,0.000,3.989,3.989,3.989,90.0,90.0,90.0,3.086
IrNdO3,Ir,Nd,FALSE,3,3,0.68,0.98,cubic,-0.365,1.924,0.815,17.452,0.000,4.435,4.435,4.435,90.0,90.0,90.0,-9.617
IrNiO3,Ir,Ni,FALSE,3,3,0.68,0.60,cubic,0.259,1.394,0.261,9.919,0.000,3.674,3.674,3.674,90.0,90.0,90.0,-3.797
IrNpO3,Ir,Np,FALSE,element not in BV,element not in BV,0.63,0.86,cubic,-0.987,1.559,0.880,15.947,0.000,4.304,4.304,4.304,90.0,90.0,90.0,-3.874
IrOsO3,Ir,Os,FALSE,element not in BV,element not in BV,0.63,0.57,cubic,0.184,1.200,0.356,11.646,0.000,3.876,3.876,3.876,90.0,90.0,90.0,-0.972
IrPaO3,Ir,Pa,FALSE,element not in BV,element not in BV,0.63,0.91,cubic,-1.152,1.027,0.452,16.404,0.000,4.345,4.345,4.345,90.0,90.0,90.0,2.856
IrPbO3,Ir,Pb,FALSE,not balanced,not balanced,0.63,0.99,rhombohedral,-0.783,0.444,0.187,15.528,0.000,5.802,5.802,5.802,65.7,65.7,65.7,-7.861
IrPdO3,Ir,Pd,FALSE,3,3,0.68,0.76,cubic,0.627,1.525,0.768,12.101,0.000,3.926,3.926,3.926,90.0,90.0,90.0,-6.252
IrPmO3,Ir,Pm,FALSE,element not in BV,element not in BV,0.63,0.97,cubic,-0.423,1.894,0.811,17.050,0.000,4.401,4.401,4.401,90.0,90.0,90.0,-9.414
IrPrO3,Ir,Pr,FALSE,3,3,0.68,0.99,cubic,-0.314,1.970,0.815,17.851,0.000,4.469,4.469,4.469,90.0,90.0,90.0,-9.787
IrPtO3,Ir,Pt,FALSE,element not in BV,element not in BV,0.63,0.67,cubic,0.656,1.531,0.728,12.382,0.000,3.956,3.956,3.956,90.0,90.0,90.0,-2.944
IrPuO3,Ir,Pu,FALSE,element not in BV,element not in BV,0.63,0.83,cubic,-0.861,1.434,1.278,15.793,0.000,4.290,4.290,4.290,90.0,90.0,90.0,-4.973
IrRbO3,Ir,Rb,FALSE,not balanced,not balanced,0.63,1.52,rhombohedral,-1.136,0.154,0.400,19.477,0.881,6.345,6.345,6.345,63.5,63.5,63.5,-20.814
IrReO3,Ir,Re,FALSE,3,3,0.68,0.63,cubic,-0.213,1.308,0.398,11.731,0.000,3.885,3.885,3.885,90.0,90.0,90.0,0.247
IrRhO3,Ir,Rh,FALSE,3,3,0.68,0.67,cubic,0.397,1.347,0.743,11.722,0.000,3.884,3.884,3.884,90.0,90.0,90.0,-1.620
IrRuO3,Ir,Ru,FALSE,3,3,0.68,0.68,cubic,0.168,1.247,0.320,11.548,0.000,3.865,3.865,3.865,90.0,90.0,90.0,-0.770
IrSbO3,Ir,Sb,FALSE,not balanced,not balanced,0.63,0.68,cubic,-0.076,1.234,0.484,12.761,0.000,3.996,3.996,3.996,90.0,90.0,90.0,0.693
IrScO3,Ir,Sc,FALSE,3,3,0.68,0.75,cubic,-0.919,1.464,0.800,12.862,0.000,4.006,4.006,4.006,90.0,90.0,90.0,-5.969
IrSiO3,Ir,Si,FALSE,not balanced,not balanced,0.63,0.40,cubic,-0.862,1.301,0.599,9.282,0.000,3.594,3.594,3.594,90.0,90.0,90.0,2.294
IrSmO3,Ir,Sm,FALSE,3,3,0.68,0.96,cubic,-0.457,1.873,0.809,16.809,0.000,4.380,4.380,4.380,90.0,90.0,90.0,-9.274
IrSnO3,Ir,Sn,FALSE,not balanced,not balanced,0.63,0.69,cubic,-0.206,1.286,0.607,12.922,0.000,4.013,4.013,4.013,90.0,90.0,90.0,-3.179
IrSrO3,Ir,Sr,FALSE,not balanced,not balanced,0.63,1.18,rhombohedral,-1.619,0.244,0.200,15.922,0.000,5.956,5.956,5.956,63.0,63.0,63.0,-14.249
IrTaO3,Ir,Ta,FALSE,3,3,0.68,0.72,cubic,-1.213,1.138,0.424,12.476,0.000,3.966,3.966,3.966,90.0,90.0,90.0,3.661