Chemical formula,A,B,In literature,Valence A,Valence B,Radius A [ang],Radius B [ang],Lowest distortion,Formation energy [eV/atom],Stability [eV/atom],Magnetic moment [mu_B],Volume per atom [A^3/atom],Band gap [eV],a [ang],b [ang],c [ang],alpha [deg],beta [deg],gamma [deg],Vacancy energy [eV/O atom]
LaYbO3,La,Yb,TRUE,3,3,1.36,0.87,cubic,-2.702,0.558,0.000,14.344,0.000,4.155,4.155,4.155,90.0,90.0,90.0,-0.903
LaZnO3,La,Zn,FALSE,not balanced,not balanced,1.36,0.74,orthorhombic,-2.422,0.094,0.000,12.144,0.000,5.520,5.612,7.840,90.0,90.0,90.0,0.433
LaZrO3,La,Zr,FALSE,3,3,1.36,0.72,orthorhombic,-3.420,0.133,0.003,14.142,0.000,5.766,5.989,8.190,90.0,90.0,90.0,5.094
LiAcO3,Li,Ac,FALSE,element not in BV,element not in BV,0.92,1.12,orthorhombic,-2.369,0.103,0.000,13.879,2.806,5.900,6.224,7.559,90.0,90.0,90.0,-0.964
LiAgO3,Li,Ag,FALSE,not balanced,not balanced,0.92,0.95,cubic,-0.124,0.697,-,12.914,0.000,4.012,4.012,4.012,90.0,90.0,90.0,-2.619
LiAlO3,Li,Al,FALSE,not balanced,not balanced,0.92,0.54,orthorhombic,-2.188,0.180,-,8.383,3.175,5.155,5.406,6.017,90.0,90.0,90.0,-1.731
LiAsO3,Li,As,FALSE,1,5,0.92,0.46,orthorhombic,-1.660,0.164,-,8.634,1.977,4.891,5.003,7.058,90.0,90.0,90.0,1.238
LiAuO3,Li,Au,FALSE,element not in BV,element not in BV,0.92,0.93,cubic,-0.203,0.640,-,12.989,0.000,4.020,4.020,4.020,90.0,90.0,90.0,-2.557
LiBO3,Li,B,FALSE,not balanced,not balanced,0.92,0.27,cubic,-1.077,1.008,-,7.002,0.000,3.271,3.271,3.271,90.0,90.0,90.0,-3.925
LiBaO3,Li,Ba,FALSE,not balanced,not balanced,0.92,1.35,cubic,-0.716,1.203,-,18.495,0.000,4.522,4.522,4.522,90.0,90.0,90.0,-2.309
LiBeO3,Li,Be,FALSE,not balanced,not balanced,0.92,0.45,cubic,-1.105,0.797,-,7.942,0.000,3.412,3.412,3.412,90.0,90.0,90.0,-3.539
LiBiO3,Li,Bi,FALSE,1,5,0.92,0.76,orthorhombic,-1.445,0.037,-,11.688,0.781,5.414,5.501,7.849,90.0,90.0,90.0,0.067
LiCaO3,Li,Ca,FALSE,not balanced,not balanced,0.92,1.00,cubic,-0.890,1.104,-,15.968,0.000,4.306,4.306,4.306,90.0,90.0,90.0,-7.423
LiCdO3,Li,Cd,FALSE,not balanced,not balanced,0.92,0.95,cubic,-0.321,0.889,-,13.932,0.000,4.115,4.115,4.115,90.0,90.0,90.0,-5.406
LiCeO3,Li,Ce,FALSE,not balanced,not balanced,0.92,0.94,orthorhombic,-2.294,0.148,0.000,12.915,2.519,5.819,6.018,7.376,90.0,90.0,90.0,-2.253
LiCoO3,Li,Co,FALSE,not balanced,not balanced,0.92,0.63,orthorhombic,-1.142,0.223,-0.400,8.180,0.000,4.783,4.965,6.889,90.0,90.0,90.0,0.263
LiCrO3,Li,Cr,FALSE,1,5,0.92,0.49,orthorhombic,-1.830,0.232,0.200,8.687,0.000,4.857,5.074,7.049,90.0,90.0,90.0,-0.060
LiCsO3,Li,Cs,FALSE,not balanced,not balanced,0.92,1.67,cubic,0.015,1.306,-,16.480,0.000,4.352,4.352,4.352,90.0,90.0,90.0,-1.652
LiCuO3,Li,Cu,FALSE,not balanced,not balanced,0.92,0.68,cubic,-0.506,0.550,-,10.021,0.000,3.687,3.687,3.687,90.0,90.0,90.0,-2.175
LiDyO3,Li,Dy,FALSE,not balanced,not balanced,0.92,0.99,cubic,-1.888,0.719,0.400,16.374,0.000,4.342,4.342,4.342,90.0,90.0,90.0,-1.958
LiErO3,Li,Er,FALSE,not balanced,not balanced,0.92,0.89,cubic,-1.931,0.699,0.400,15.947,0.000,4.304,4.304,4.304,90.0,90.0,90.0,-
LiEuO3,Li,Eu,FALSE,not balanced,not balanced,0.92,1.06,orthorhombic,-1.985,0.089,0.129,12.171,0.000,5.554,6.084,7.203,90.0,90.0,90.0,-5.968
LiFeO3,Li,Fe,FALSE,1,5,0.92,0.59,orthorhombic,-1.354,0.196,0.600,8.583,0.000,4.869,5.052,6.979,90.0,90.0,90.0,-0.831
LiGaO3,Li,Ga,FALSE,not balanced,not balanced,0.92,0.62,cubic,-1.169,0.625,-,11.057,0.000,3.810,3.810,3.810,90.0,90.0,90.0,-2.557
LiGdO3,Li,Gd,FALSE,not balanced,not balanced,0.92,0.94,cubic,-1.839,0.739,0.398,16.926,0.000,4.390,4.390,4.390,90.0,90.0,90.0,-2.036
LiGeO3,Li,Ge,FALSE,not balanced,not balanced,0.92,0.63,orthorhombic,-1.612,0.270,-,8.872,0.000,5.040,5.257,6.696,90.0,90.0,90.0,-0.763
LiHfO3,Li,Hf,FALSE,not balanced,not balanced,0.92,0.71,rhombohedral,-2.759,0.218,0.200,11.406,0.000,5.584,5.584,5.584,56.8,56.8,56.8,-0.501
LiHgO3,Li,Hg,FALSE,not balanced,not balanced,0.92,1.11,cubic,-0.088,0.809,-,14.230,0.000,4.144,4.144,4.144,90.0,90.0,90.0,-2.566
LiHoO3,Li,Ho,FALSE,not balanced,not balanced,0.92,0.90,cubic,-1.910,0.709,0.400,16.131,0.000,4.321,4.321,4.321,90.0,90.0,90.0,-1.927
LiInO3,Li,In,FALSE,not balanced,not balanced,0.92,0.80,cubic,-0.881,0.726,-,14.024,0.000,4.124,4.124,4.124,90.0,90.0,90.0,-2.484
LiIrO3,Li,Ir,FALSE,1,5,0.92,0.57,rhombohedral,-1.378,-0.058,0.000,9.756,0.000,5.198,5.198,5.198,59.2,59.2,59.2,0.843
LiKO3,Li,K,FALSE,not balanced,not balanced,0.92,1.38,cubic,0.491,1.788,-,16.858,0.000,4.385,4.385,4.385,90.0,90.0,90.0,-14.261
LiLaO3,Li,La,FALSE,not balanced,not balanced,0.92,1.03,orthorhombic,-2.405,0.133,0.000,12.879,2.829,5.849,6.005,7.334,90.0,90.0,90.0,-1.742
Li2O3,Li,Li,FALSE,not balanced,not balanced,0.92,0.76,cubic,-0.320,1.044,-,8.937,0.000,3.549,3.549,3.549,90.0,90.0,90.0,-8.284
LiLuO3,Li,Lu,FALSE,not balanced,not balanced,0.92,0.86,cubic,-2.000,0.663,0.401,15.284,0.000,4.244,4.244,4.244,90.0,90.0,90.0,-1.709
LiMgO3,Li,Mg,FALSE,not balanced,not balanced,0.92,0.72,cubic,-1.028,0.866,-,11.367,0.000,3.845,3.845,3.845,90.0,90.0,90.0,-5.461
LiMnO3,Li,Mn,FALSE,1,5,0.92,0.33,orthorhombic,-1.604,0.220,0.400,8.616,0.000,4.901,5.115,6.874,90.0,90.0,90.0,-1.049
LiMoO3,Li,Mo,FALSE,1,5,0.92,0.61,rhombohedral,-2.232,0.090,-0.001,10.278,0.000,5.369,5.369,5.369,57.3,57.3,57.3,4.169
LiNaO3,Li,Na,FALSE,not balanced,not balanced,0.92,1.02,orthorhombic,-1.096,0.179,-,10.622,0.000,4.695,5.985,7.561,90.0,90.0,90.0,-11.799
LiNbO3,Li,Nb,TRUE,1,5,0.92,0.64,rhombohedral,-2.704,0.033,0.000,10.725,2.613,5.467,5.467,5.467,56.9,56.9,56.9,4.763
LiNdO3,Li,Nd,FALSE,not balanced,not balanced,0.92,0.98,orthorhombic,-2.335,0.187,0.000,12.423,2.550,5.762,5.941,7.258,90.0,90.0,90.0,-2.224
LiNiO3,Li,Ni,FALSE,not balanced,not balanced,0.92,0.59,cubic,-0.607,0.605,0.506,9.765,0.000,3.655,3.655,3.655,90.0,90.0,90.0,-2.014
LiNpO3,Li,Np,FALSE,element not in BV,element not in BV,0.92,0.86,rhombohedral,-2.882,0.050,0.400,12.707,1.647,5.877,5.877,5.877,55.1,55.1,55.1,1.274
LiOsO3,Li,Os,FALSE,element not in BV,element not in BV,0.92,0.57,rhombohedral,-1.575,-0.044,-0.002,9.800,0.000,5.225,5.225,5.225,58.8,58.8,58.8,2.292
LiPaO3,Li,Pa,FALSE,element not in BV,element not in BV,0.92,0.91,rhombohedral,-2.963,-0.311,0.000,13.301,4.216,5.976,5.976,5.976,54.9,54.9,54.9,5.528
LiPbO3,Li,Pb,FALSE,not balanced,not balanced,0.92,0.99,cubic,-0.818,0.528,-,15.009,0.000,4.218,4.218,4.218,90.0,90.0,90.0,-1.895
LiPdO3,Li,Pd,FALSE,not balanced,not balanced,0.92,0.75,cubic,-0.488,0.562,-,11.894,0.000,3.903,3.903,3.903,90.0,90.0,90.0,-1.945
LiPmO3,Li,Pm,FALSE,element not in BV,element not in BV,0.92,0.97,cubic,-1.748,0.772,0.400,17.917,0.000,4.474,4.474,4.474,90.0,90.0,90.0,-2.171
LiPrO3,Li,Pr,FALSE,not balanced,not balanced,0.92,0.92,orthorhombic,-2.317,0.153,0.000,12.660,2.754,5.793,5.974,7.316,90.0,90.0,90.0,-2.280
LiPtO3,Li,Pt,FALSE,element not in BV,element not in BV,0.92,0.67,cubic,-0.654,0.502,0.321,12.024,0.000,3.917,3.917,3.917,90.0,90.0,90.0,-0.831
LiPuO3,Li,Pu,FALSE,element not in BV,element not in BV,0.92,0.83,orthorhombic,-2.653,-0.046,0.600,12.122,1.592,5.445,5.519,8.067,90.0,90.0,90.0,0.694
LiRbO3,Li,Rb,FALSE,not balanced,not balanced,0.92,1.52,cubic,0.449,1.733,-,16.306,0.000,4.336,4.336,4.336,90.0,90.0,90.0,-13.374
LiReO3,Li,Re,FALSE,1,5,0.92,0.58,rhombohedral,-1.921,0.067,0.003,10.067,0.000,5.309,5.309,5.309,57.9,57.9,57.9,3.622
LiRhO3,Li,Rh,FALSE,not balanced,not balanced,0.92,0.61,orthorhombic,-1.253,0.051,0.135,9.290,0.000,4.970,5.147,7.264,90.0,90.0,90.0,-0.040
LiRuO3,Li,Ru,FALSE,1,5,0.92,0.57,rhombohedral,-1.495,-0.029,0.000,9.662,0.000,5.197,5.197,5.197,58.8,58.8,58.8,1.489
LiSbO3,Li,Sb,FALSE,1,5,0.92,0.60,rhombohedral,-1.906,0.049,-,10.472,2.403,5.371,5.371,5.371,58.1,58.1,58.1,2.451
LiScO3,Li,Sc,FALSE,not balanced,not balanced,0.92,0.75,cubic,-2.008,0.594,0.400,13.484,0.000,4.070,4.070,4.070,90.0,90.0,90.0,-1.701
LiSiO3,Li,Si,FALSE,not balanced,not balanced,0.92,0.40,orthorhombic,-2.248,0.330,-,8.016,0.000,4.785,4.929,6.797,90.0,90.0,90.0,-0.049
LiSmO3,Li,Sm,FALSE,not balanced,not balanced,0.92,0.96,cubic,-1.769,0.763,0.400,17.683,0.000,4.455,4.455,4.455,90.0,90.0,90.0,-2.137
LiSnO3,Li,Sn,FALSE,not balanced,not balanced,0.92,0.69,orthorhombic,-1.623,0.240,-,10.630,2.954,5.388,5.467,7.217,90.0,90.0,90.0,-0.934
LiSrO3,Li,Sr,FALSE,not balanced,not balanced,0.92,1.18,cubic,-0.716,1.228,-,18.211,0.000,4.499,4.499,4.499,90.0,90.0,90.0,-8.016
LiTaO3,Li,Ta,FALSE,1,5,0.92,0.64,rhombohedral,-2.950,0.016,0.000,10.582,3.544,5.444,5.444,5.444,56.9,56.9,56.9,5.721
LiTbO3,Li,Tb,FALSE,not balanced,not balanced,0.92,0.84,cubic,-1.733,0.729,0.400,16.632,0.000,4.365,4.365,4.365,90.0,90.0,90.0,-1.998
LiTcO3,Li,Tc,FALSE,element not in BV,element not in BV,0.92,0.60,rhombohedral,-1.847,-0.017,0.125,9.911,0.000,5.284,5.284,5.284,57.8,57.8,57.8,3.041
LiTeO3,Li,Te,FALSE,not balanced,not balanced,0.92,0.77,rhombohedral,-1.520,0.124,-,11.299,0.000,5.524,5.524,5.524,57.7,57.7,57.7,1.407
LiThO3,Li,Th,FALSE,not balanced,not balanced,0.92,0.94,cubic,-2.564,0.627,0.100,17.962,0.000,4.478,4.478,4.478,90.0,90.0,90.0,-0.411
LiTiO3,Li,Ti,FALSE,not balanced,not balanced,0.92,0.71,orthorhombic,-2.454,0.222,0.199,9.643,0.000,5.080,5.396,7.036,90.0,90.0,90.0,-0.779
LiTlO3,Li,Tl,FALSE,not balanced,not balanced,0.92,1.20,cubic,-0.393,0.757,-,14.780,0.000,4.196,4.196,4.196,90.0,90.0,90.0,-2.816
LiTmO3,Li,Tm,FALSE,not balanced,not balanced,0.92,0.96,cubic,-1.963,0.685,0.400,15.693,0.000,4.281,4.281,4.281,90.0,90.0,90.0,-1.789
LiUO3,Li,U,FALSE,1,5,0.92,0.76,rhombohedral,-3.146,0.000,0.200,12.908,3.281,5.888,5.888,5.888,55.4,55.4,55.4,4.056
LiVO3,Li,V,FALSE,1,5,0.92,0.54,tetragonal,-2.299,0.074,0.000,11.230,0.815,3.608,3.608,4.312,90.0,90.0,90.0,2.005
LiWO3,Li,W,FALSE,1,5,0.92,0.62,rhombohedral,-2.351,0.056,0.000,10.409,0.000,5.394,5.394,5.394,57.3,57.3,57.3,4.814
LiYO3,Li,Y,FALSE,not balanced,not balanced,0.92,0.90,cubic,-1.858,0.728,0.400,16.658,0.000,4.367,4.367,4.367,90.0,90.0,90.0,-2.006
LiYbO3,Li,Yb,FALSE,not balanced,not balanced,0.92,0.95,cubic,-1.088,1.031,-,14.555,0.000,4.175,4.175,4.175,90.0,90.0,90.0,-6.734
LiZnO3,Li,Zn,FALSE,not balanced,not balanced,0.92,0.74,cubic,-0.625,0.750,-,11.030,0.000,3.806,3.806,3.806,90.0,90.0,90.0,-4.268
LiZrO3,Li,Zr,FALSE,not balanced,not balanced,0.92,0.72,rhombohedral,-2.607,0.247,0.200,11.774,0.000,5.640,5.640,5.640,56.9,56.9,56.9,-0.792
LuAcO3,Lu,Ac,FALSE,element not in BV,element not in BV,1.03,1.12,orthorhombic,-3.553,0.240,0.000,16.779,3.320,6.073,6.194,8.921,90.0,90.0,90.0,0.046
LuAgO3,Lu,Ag,FALSE,3,3,1.03,0.75,cubic,-1.295,0.798,0.000,12.777,0.000,3.998,3.998,3.998,90.0,90.0,90.0,-0.965
LuAlO3,Lu,Al,TRUE,3,3,1.03,0.54,orthorhombic,-3.622,-0.008,0.000,9.848,6.174,5.078,5.326,7.283,90.0,90.0,90.0,6.179
LuAsO3,Lu,As,FALSE,3,3,1.03,0.58,cubic,-1.773,0.945,0.000,12.537,0.000,3.972,3.972,3.972,90.0,90.0,90.0,1.859
LuAuO3,Lu,Au,FALSE,element not in BV,element not in BV,1.03,0.93,cubic,-1.148,0.973,0.000,13.557,0.000,4.077,4.077,4.077,90.0,90.0,90.0,-1.049
LuBO3,Lu,B,FALSE,3,3,1.03,0.27,cubic,-2.525,0.880,0.000,7.901,3.125,3.406,3.406,3.406,90.0,90.0,90.0,5.405
LuBaO3,Lu,Ba,FALSE,not balanced,not balanced,1.03,1.35,orthorhombic,-2.871,0.291,0.200,17.700,0.642,6.409,6.753,8.180,90.0,90.0,90.0,-8.533
LuBeO3,Lu,Be,FALSE,not balanced,not balanced,1.03,0.45,tetragonal,-2.814,0.354,0.020,9.222,0.000,3.241,3.241,4.388,90.0,90.0,90.0,-1.355
LuBiO3,Lu,Bi,FALSE,3,3,1.03,1.03,cubic,-1.379,1.339,0.000,16.542,0.000,4.357,4.357,4.357,90.0,90.0,90.0,0.107
LuCaO3,Lu,Ca,FALSE,not balanced,not balanced,1.03,1.00,cubic,-1.996,1.276,0.000,13.788,0.000,4.100,4.100,4.100,90.0,90.0,90.0,-3.504
LuCdO3,Lu,Cd,FALSE,not balanced,not balanced,1.03,0.95,cubic,-1.455,1.021,0.000,13.490,0.000,4.071,4.071,4.071,90.0,90.0,90.0,-1.468
LuCeO3,Lu,Ce,FALSE,3,3,1.03,1.01,cubic,-2.148,1.593,0.003,18.538,0.000,4.526,4.526,4.526,90.0,90.0,90.0,1.610
LuCoO3,Lu,Co,FALSE,3,3,1.03,0.61,orthorhombic,-2.573,0.035,0.000,10.328,1.410,5.114,5.546,7.283,90.0,90.0,90.0,1.890
LuCrO3,Lu,Cr,TRUE,3,3,1.03,0.62,orthorhombic,-3.233,-0.011,0.600,10.700,2.393,5.175,5.519,7.493,90.0,90.0,90.0,3.926
LuCsO3,Lu,Cs,FALSE,not balanced,not balanced,1.03,1.67,-,-,-,-,-,-,-,-,-,-,-,-,-
LuCuO3,Lu,Cu,FALSE,3,3,1.03,0.54,orthorhombic,-2.309,0.018,0.000,10.498,0.273,5.121,5.809,7.059,90.0,90.0,90.0,0.256
LuDyO3,Lu,Dy,FALSE,3,3,1.03,0.91,cubic,-2.753,1.153,0.000,15.334,0.591,4.248,4.248,4.248,90.0,90.0,90.0,-0.415
LuErO3,Lu,Er,FALSE,3,3,1.03,0.89,cubic,-2.856,1.073,0.000,14.843,0.878,4.202,4.202,4.202,90.0,90.0,90.0,0.359
LuEuO3,Lu,Eu,FALSE,3,3,1.03,0.95,orthorhombic,-3.128,0.227,0.200,14.799,0.000,5.582,5.682,9.331,90.0,90.0,90.0,-3.424
LuFeO3,Lu,Fe,TRUE,3,3,1.03,0.65,orthorhombic,-2.808,0.001,1.000,10.832,1.263,5.197,5.533,7.534,90.0,90.0,90.0,2.726
LuGaO3,Lu,Ga,FALSE,3,3,1.03,0.62,orthorhombic,-3.002,0.030,0.000,10.647,4.106,5.172,5.507,7.477,90.0,90.0,90.0,4.166
LuGdO3,Lu,Gd,FALSE,3,3,1.03,0.94,cubic,-2.635,1.242,0.000,15.960,0.417,4.305,4.305,4.305,90.0,90.0,90.0,-1.222
LuGeO3,Lu,Ge,FALSE,3,3,1.03,0.63,cubic,-2.095,0.736,0.000,11.320,0.000,3.840,3.840,3.840,90.0,90.0,90.0,2.514
LuHfO3,Lu,Hf,FALSE,3,3,1.03,0.71,cubic,-3.008,0.701,0.000,13.441,0.000,4.066,4.066,4.066,90.0,90.0,90.0,4.267
LuHgO3,Lu,Hg,FALSE,not balanced,not balanced,1.03,1.11,cubic,-1.018,1.144,-0.005,14.494,0.000,4.169,4.169,4.169,90.0,90.0,90.0,-1.412
LuHoO3,Lu,Ho,FALSE,3,3,1.03,0.90,cubic,-2.808,1.110,0.000,15.148,0.884,4.231,4.231,4.231,90.0,90.0,90.0,-0.008
LuInO3,Lu,In,FALSE,3,3,1.03,0.80,cubic,-2.010,0.893,0.000,13.548,0.993,4.076,4.076,4.076,90.0,90.0,90.0,2.407
LuIrO3,Lu,Ir,FALSE,3,3,1.03,0.68,cubic,-1.513,0.947,0.000,12.178,0.000,3.934,3.934,3.934,90.0,90.0,90.0,-1.445
LuKO3,Lu,K,FALSE,not balanced,not balanced,1.03,1.38,orthorhombic,-2.100,0.458,0.400,17.209,0.000,5.756,5.773,10.357,90.0,90.0,90.0,-4.315
LuLaO3,Lu,La,FALSE,3,3,1.03,1.03,cubic,-2.270,1.567,0.000,18.197,0.000,4.498,4.498,4.498,90.0,90.0,90.0,1.309
LuLiO3,Lu,Li,FALSE,not balanced,not balanced,1.03,0.76,cubic,-2.031,0.632,0.399,9.190,0.000,3.582,3.582,3.582,90.0,90.0,90.0,-1.761
Lu2O3,Lu,Lu,FALSE,3,3,1.03,0.86,cubic,-3.004,0.957,0.000,14.132,0.853,4.134,4.134,4.134,90.0,90.0,90.0,1.406
LuMgO3,Lu,Mg,FALSE,not balanced,not balanced,1.03,0.72,cubic,-2.506,0.662,0.198,10.730,0.000,3.772,3.772,3.772,90.0,90.0,90.0,-2.022
LuMnO3,Lu,Mn,TRUE,3,3,1.03,0.65,orthorhombic,-2.982,0.052,0.800,10.871,0.422,5.189,5.658,7.406,90.0,90.0,90.0,3.157
LuMoO3,Lu,Mo,FALSE,3,3,1.03,0.69,cubic,-2.143,0.808,0.002,12.264,0.000,3.943,3.943,3.943,90.0,90.0,90.0,1.071
LuNaO3,Lu,Na,FALSE,not balanced,not balanced,1.03,1.02,cubic,-1.312,1.248,0.400,11.723,0.000,3.885,3.885,3.885,90.0,90.0,90.0,-3.364
LuNbO3,Lu,Nb,FALSE,3,3,1.03,0.72,cubic,-2.467,0.789,0.000,12.973,0.000,4.018,4.018,4.018,90.0,90.0,90.0,2.619
LuNdO3,Lu,Nd,FALSE,3,3,1.03,0.98,cubic,-2.329,1.462,0.000,17.501,0.000,4.440,4.440,4.440,90.0,90.0,90.0,2.364
LuNiO3,Lu,Ni,FALSE,3,3,1.03,0.60,orthorhombic,-2.440,0.037,0.200,10.119,0.000,5.054,5.530,7.241,90.0,90.0,90.0,0.736
LuNpO3,Lu,Np,FALSE,element not in BV,element not in BV,1.03,0.86,cubic,-2.448,1.301,0.736,17.011,0.000,4.398,4.398,4.398,90.0,90.0,90.0,1.495
LuOsO3,Lu,Os,FALSE,element not in BV,element not in BV,1.03,0.57,cubic,-1.558,0.946,0.003,12.077,0.000,3.923,3.923,3.923,90.0,90.0,90.0,-0.503
LuPaO3,Lu,Pa,FALSE,element not in BV,element not in BV,1.03,0.91,cubic,-2.289,1.086,0.199,17.731,0.000,4.459,4.459,4.459,90.0,90.0,90.0,2.285
LuPbO3,Lu,Pb,FALSE,not balanced,not balanced,1.03,0.99,cubic,-1.358,1.239,0.000,15.545,0.000,4.268,4.268,4.268,90.0,90.0,90.0,0.427
LuPdO3,Lu,Pd,FALSE,not balanced,not balanced,1.03,0.75,cubic,-1.578,0.662,-0.001,12.159,0.000,3.932,3.932,3.932,90.0,90.0,90.0,-0.618
LuPmO3,Lu,Pm,FALSE,element not in BV,element not in BV,1.03,0.97,cubic,-2.420,1.399,0.000,17.017,0.000,4.398,4.398,4.398,90.0,90.0,90.0,-2.609
LuPrO3,Lu,Pr,FALSE,3,3,1.03,0.99,cubic,-2.244,1.525,0.000,17.971,0.000,4.479,4.479,4.479,90.0,90.0,90.0,2.007
LuPtO3,Lu,Pt,FALSE,element not in BV,element not in BV,1.03,0.67,cubic,-1.418,0.911,0.000,12.753,0.000,3.995,3.995,3.995,90.0,90.0,90.0,-0.951
LuPuO3,Lu,Pu,FALSE,element not in BV,element not in BV,1.03,0.83,cubic,-2.506,1.291,0.874,16.523,0.000,4.355,4.355,4.355,90.0,90.0,90.0,2.614
LuRbO3,Lu,Rb,FALSE,not balanced,not balanced,1.03,1.52,cubic,-0.349,2.201,0.012,16.095,0.000,4.317,4.317,4.317,90.0,90.0,90.0,-3.998
LuReO3,Lu,Re,FALSE,3,3,1.03,0.63,cubic,-1.769,0.981,0.138,12.132,0.000,3.929,3.929,3.929,90.0,90.0,90.0,-0.465
LuRhO3,Lu,Rh,FALSE,3,3,1.03,0.67,cubic,-1.728,0.720,0.001,11.811,0.000,3.894,3.894,3.894,90.0,90.0,90.0,-0.647
LuRuO3,Lu,Ru,FALSE,3,3,1.03,0.68,cubic,-1.779,0.772,0.140,11.816,0.000,3.895,3.895,3.895,90.0,90.0,90.0,0.094
LuSbO3,Lu,Sb,FALSE,3,3,1.03,0.76,cubic,-1.597,1.174,0.000,14.726,0.000,4.191,4.191,4.191,90.0,90.0,90.0,0.010
LuScO3,Lu,Sc,FALSE,3,3,1.03,0.75,cubic,-3.189,0.696,0.000,12.449,2.638,3.963,3.963,3.963,90.0,90.0,90.0,4.801
LuSiO3,Lu,Si,FALSE,3,3,1.03,0.40,cubic,-2.554,0.876,0.001,9.658,0.000,3.642,3.642,3.642,90.0,90.0,90.0,4.364
LuSmO3,Lu,Sm,FALSE,3,3,1.03,0.96,cubic,-2.478,1.354,0.000,16.714,0.000,4.372,4.372,4.372,90.0,90.0,90.0,-1.156
LuSnO3,Lu,Sn,FALSE,not balanced,not balanced,1.03,0.69,cubic,-1.880,0.996,0.001,13.655,0.000,4.087,4.087,4.087,90.0,90.0,90.0,2.179
LuSrO3,Lu,Sr,FALSE,not balanced,not balanced,1.03,1.18,orthorhombic,-2.972,0.246,0.200,15.952,0.922,6.174,6.355,8.132,90.0,90.0,90.0,-5.380
LuTaO3,Lu,Ta,FALSE,3,3,1.03,0.72,cubic,-2.552,0.807,0.000,12.780,0.000,3.998,3.998,3.998,90.0,90.0,90.0,2.596
LuTbO3,Lu,Tb,FALSE,3,3,1.03,0.92,cubic,-2.565,1.196,0.000,15.633,0.593,4.276,4.276,4.276,90.0,90.0,90.0,-0.812
LuTcO3,Lu,Tc,FALSE,element not in BV,element not in BV,1.03,0.60,cubic,-1.949,0.797,0.319,12.024,0.000,3.917,3.917,3.917,90.0,90.0,90.0,0.535
LuTeO3,Lu,Te,FALSE,not balanced,not balanced,1.03,0.77,cubic,-1.294,1.305,0.001,15.096,0.000,4.226,4.226,4.226,90.0,90.0,90.0,0.346
LuThO3,Lu,Th,FALSE,not balanced,not balanced,1.03,0.94,cubic,-2.682,1.206,0.008,18.873,0.000,4.553,4.553,4.553,90.0,90.0,90.0,1.859
LuTiO3,Lu,Ti,TRUE,3,3,1.03,0.67,orthorhombic,-3.482,0.060,0.200,11.046,0.000,5.222,5.601,7.553,90.0,90.0,90.0,4.341
LuTlO3,Lu,Tl,FALSE,3,3,1.03,0.89,orthorhombic,-2.300,0.149,0.000,13.621,1.053,5.447,5.792,8.636,90.0,90.0,90.0,0.315
LuTmO3,Lu,Tm,FALSE,3,3,1.03,0.88,cubic,-2.919,1.027,0.000,14.578,1.025,4.177,4.177,4.177,90.0,90.0,90.0,0.782
LuUO3,Lu,U,FALSE,3,3,1.03,1.03,cubic,-2.473,1.227,0.451,16.973,0.000,4.395,4.395,4.395,90.0,90.0,90.0,1.311
LuVO3,Lu,V,FALSE,3,3,1.03,0.64,cubic,-2.743,0.553,0.400,11.209,0.000,3.827,3.827,3.827,90.0,90.0,90.0,3.721
LuWO3,Lu,W,FALSE,3,3,1.03,0.66,cubic,-2.068,0.960,0.000,12.337,0.000,3.951,3.951,3.951,90.0,90.0,90.0,0.590
LuYO3,Lu,Y,FALSE,3,3,1.03,0.90,cubic,-2.729,1.156,0.000,15.313,0.868,4.246,4.246,4.246,90.0,90.0,90.0,-0.404
LuYbO3,Lu,Yb,FALSE,3,3,1.03,0.87,cubic,-2.241,1.143,-0.159,13.552,0.000,4.077,4.077,4.077,90.0,90.0,90.0,-2.456
LuZnO3,Lu,Zn,FALSE,not balanced,not balanced,1.03,0.74,cubic,-2.055,0.586,0.000,10.763,0.000,3.775,3.775,3.775,90.0,90.0,90.0,-0.648
LuZrO3,Lu,Zr,FALSE,3,3,1.03,0.72,cubic,-2.834,0.791,0.000,13.993,0.000,4.121,4.121,4.121,90.0,90.0,90.0,3.882
MgAcO3,Mg,Ac,FALSE,element not in BV,element not in BV,0.89,1.12,orthorhombic,-2.778,0.199,0.200,15.257,0.592,5.598,6.166,8.840,90.0,90.0,90.0,-
MgAgO3,Mg,Ag,FALSE,not balanced,not balanced,0.89,0.95,cubic,-0.491,0.812,-,12.494,0.000,3.968,3.968,3.968,90.0,90.0,90.0,-2.412
MgAlO3,Mg,Al,FALSE,not balanced,not balanced,0.89,0.54,orthorhombic,-2.611,0.247,-,8.956,0.000,5.029,5.273,6.754,90.0,90.0,90.0,-1.029
MgAsO3,Mg,As,FALSE,not balanced,not balanced,0.89,0.52,cubic,-1.460,0.653,-,11.102,0.000,3.815,3.815,3.815,90.0,90.0,90.0,1.423
MgAuO3,Mg,Au,FALSE,element not in BV,element not in BV,0.89,0.93,cubic,-0.507,0.821,-,12.832,0.000,4.003,4.003,4.003,90.0,90.0,90.0,-1.620
MgBO3,Mg,B,FALSE,not balanced,not balanced,0.89,0.27,cubic,-1.546,1.046,-,7.318,0.000,3.320,3.320,3.320,90.0,90.0,90.0,-1.938
MgBaO3,Mg,Ba,FALSE,not balanced,not balanced,0.89,1.35,orthorhombic,-2.189,0.261,-,15.988,2.388,6.136,6.627,7.863,90.0,90.0,90.0,-0.976