Chemical formula,A,B,In literature,Valence A,Valence B,Radius A [ang],Radius B [ang],Lowest distortion,Formation energy [eV/atom],Stability [eV/atom],Magnetic moment [mu_B],Volume per atom [A^3/atom],Band gap [eV],a [ang],b [ang],c [ang],alpha [deg],beta [deg],gamma [deg],Vacancy energy [eV/O atom]
OsPrO3,Os,Pr,FALSE,element not in BV,element not in BV,0.57,0.92,cubic,-0.206,2.147,1.067,17.885,0.000,4.472,4.472,4.472,90.0,90.0,90.0,-10.401
OsPtO3,Os,Pt,FALSE,element not in BV,element not in BV,0.57,0.67,cubic,0.731,1.712,0.958,12.557,0.000,3.975,3.975,3.975,90.0,90.0,90.0,-4.181
OsPuO3,Os,Pu,FALSE,element not in BV,element not in BV,0.57,0.83,cubic,-0.541,1.798,0.797,16.049,0.000,4.313,4.313,4.313,90.0,90.0,90.0,-
OsRbO3,Os,Rb,FALSE,element not in BV,element not in BV,0.57,1.52,cubic,1.782,0.102,0.952,15.870,0.000,4.297,4.297,4.297,90.0,90.0,90.0,-21.720
OsReO3,Os,Re,FALSE,element not in BV,element not in BV,0.57,0.57,cubic,-0.011,1.509,0.652,11.862,0.000,3.900,3.900,3.900,90.0,90.0,90.0,-1.121
OsRhO3,Os,Rh,FALSE,element not in BV,element not in BV,0.57,0.61,cubic,0.474,1.482,0.908,11.854,0.000,3.899,3.899,3.899,90.0,90.0,90.0,-2.612
OsRuO3,Os,Ru,FALSE,element not in BV,element not in BV,0.57,0.62,cubic,0.292,1.400,0.628,11.707,0.000,3.883,3.883,3.883,90.0,90.0,90.0,-1.907
OsSbO3,Os,Sb,FALSE,element not in BV,element not in BV,0.57,0.68,cubic,0.120,1.460,0.758,13.202,0.000,4.041,4.041,4.041,90.0,90.0,90.0,0.586
OsScO3,Os,Sc,FALSE,element not in BV,element not in BV,0.57,0.75,cubic,-0.872,1.555,1.003,12.821,0.000,4.002,4.002,4.002,90.0,90.0,90.0,-5.885
OsSiO3,Os,Si,FALSE,element not in BV,element not in BV,0.57,0.40,cubic,-0.710,1.483,0.812,9.418,0.000,3.611,3.611,3.611,90.0,90.0,90.0,1.461
OsSmO3,Os,Sm,FALSE,element not in BV,element not in BV,0.57,0.96,cubic,-0.364,2.041,1.036,16.820,0.000,4.381,4.381,4.381,90.0,90.0,90.0,-9.721
OsSnO3,Os,Sn,FALSE,element not in BV,element not in BV,0.57,0.69,cubic,-0.087,1.434,0.833,13.036,0.000,4.024,4.024,4.024,90.0,90.0,90.0,1.206
OsSrO3,Os,Sr,FALSE,element not in BV,element not in BV,0.57,1.18,cubic,0.570,0.138,1.229,17.190,0.000,4.413,4.413,4.413,90.0,90.0,90.0,-14.974
OsTaO3,Os,Ta,FALSE,element not in BV,element not in BV,0.57,0.68,cubic,-0.983,1.383,0.669,12.590,0.000,3.978,3.978,3.978,90.0,90.0,90.0,2.229
OsTbO3,Os,Tb,FALSE,element not in BV,element not in BV,0.57,0.84,cubic,-0.393,1.909,1.022,15.858,0.000,4.296,4.296,4.296,90.0,90.0,90.0,-8.898
OsTcO3,Os,Tc,FALSE,element not in BV,element not in BV,0.57,0.60,cubic,-0.023,1.346,0.646,11.774,0.000,3.890,3.890,3.890,90.0,90.0,90.0,-0.955
OsTeO3,Os,Te,FALSE,element not in BV,element not in BV,0.57,0.77,cubic,0.422,1.550,0.793,14.126,0.000,4.134,4.134,4.134,90.0,90.0,90.0,-2.452
OsThO3,Os,Th,FALSE,element not in BV,element not in BV,0.57,0.94,cubic,-0.986,1.905,0.902,18.690,0.000,4.538,4.538,4.538,90.0,90.0,90.0,-0.205
OsTiO3,Os,Ti,FALSE,element not in BV,element not in BV,0.57,0.71,cubic,-1.035,1.259,0.817,11.456,0.000,3.855,3.855,3.855,90.0,90.0,90.0,-2.520
OsTlO3,Os,Tl,FALSE,element not in BV,element not in BV,0.57,1.20,cubic,0.880,0.175,0.956,14.823,0.000,4.201,4.201,4.201,90.0,90.0,90.0,-10.443
OsTmO3,Os,Tm,FALSE,element not in BV,element not in BV,0.57,0.96,cubic,-0.697,1.792,1.010,14.888,0.000,4.207,4.207,4.207,90.0,90.0,90.0,-7.861
OsUO3,Os,U,FALSE,element not in BV,element not in BV,0.57,0.85,cubic,-1.116,1.524,0.958,15.963,0.000,4.306,4.306,4.306,90.0,90.0,90.0,3.604
OsVO3,Os,V,FALSE,element not in BV,element not in BV,0.57,0.64,cubic,-0.556,1.294,0.978,10.921,0.000,3.794,3.794,3.794,90.0,90.0,90.0,-3.713
OsWO3,Os,W,FALSE,element not in BV,element not in BV,0.57,0.63,cubic,-0.429,1.528,0.656,12.104,0.000,3.926,3.926,3.926,90.0,90.0,90.0,0.654
OsYO3,Os,Y,FALSE,element not in BV,element not in BV,0.57,0.90,cubic,-0.541,1.886,1.011,15.700,0.000,4.282,4.282,4.282,90.0,90.0,90.0,-8.627
OsYbO3,Os,Yb,FALSE,element not in BV,element not in BV,0.57,0.95,cubic,0.001,0.294,1.213,14.040,0.000,4.125,4.125,4.125,90.0,90.0,90.0,-12.339
OsZnO3,Os,Zn,FALSE,element not in BV,element not in BV,0.57,0.74,cubic,0.343,1.700,0.987,11.056,0.000,3.809,3.809,3.809,90.0,90.0,90.0,-7.755
OsZrO3,Os,Zr,FALSE,element not in BV,element not in BV,0.57,0.72,cubic,-1.070,1.458,0.838,13.953,0.000,4.117,4.117,4.117,90.0,90.0,90.0,-3.131
PaAcO3,Pa,Ac,FALSE,element not in BV,element not in BV,0.95,1.12,cubic,-1.640,1.544,0.392,20.472,0.000,4.678,4.678,4.678,90.0,90.0,90.0,-0.704
PaAgO3,Pa,Ag,FALSE,element not in BV,element not in BV,0.95,0.95,orthorhombic,-2.063,0.263,0.000,13.672,1.730,5.835,6.235,7.516,90.0,90.0,90.0,-1.774
PaAlO3,Pa,Al,FALSE,element not in BV,element not in BV,0.95,0.54,orthorhombic,-2.836,0.191,0.400,10.950,0.000,5.383,5.388,7.551,90.0,90.0,90.0,5.281
PaAsO3,Pa,As,FALSE,element not in BV,element not in BV,0.95,0.52,cubic,-1.277,1.065,0.418,13.312,0.000,4.053,4.053,4.053,90.0,90.0,90.0,1.572
PaAuO3,Pa,Au,FALSE,element not in BV,element not in BV,0.95,0.93,orthorhombic,-2.068,0.026,0.000,16.244,2.044,6.417,6.963,7.271,90.0,90.0,90.0,-2.825
PaBO3,Pa,B,FALSE,element not in BV,element not in BV,0.95,0.27,cubic,-1.644,1.102,0.353,9.442,0.000,3.614,3.614,3.614,90.0,90.0,90.0,-
PaBaO3,Pa,Ba,FALSE,element not in BV,element not in BV,0.95,1.35,orthorhombic,-2.812,0.341,0.200,18.815,1.344,6.694,6.734,8.348,90.0,90.0,90.0,-
PaBeO3,Pa,Be,FALSE,element not in BV,element not in BV,0.95,0.45,orthorhombic,-2.806,0.240,0.200,9.587,1.713,5.085,5.168,7.297,90.0,90.0,90.0,4.249
PaBiO3,Pa,Bi,FALSE,element not in BV,element not in BV,0.95,0.90,cubic,-0.920,1.430,0.465,16.363,0.000,4.341,4.341,4.341,90.0,90.0,90.0,-
PaCaO3,Pa,Ca,FALSE,element not in BV,element not in BV,0.95,1.00,cubic,-1.826,1.362,0.200,14.379,0.000,4.158,4.158,4.158,90.0,90.0,90.0,-
PaCdO3,Pa,Cd,FALSE,element not in BV,element not in BV,0.95,0.95,orthorhombic,-2.295,0.072,0.200,14.240,1.702,5.684,6.127,8.178,90.0,90.0,90.0,-1.407
PaCeO3,Pa,Ce,FALSE,element not in BV,element not in BV,0.95,0.94,cubic,-1.791,1.364,0.397,18.736,0.000,4.542,4.542,4.542,90.0,90.0,90.0,-
PaCoO3,Pa,Co,FALSE,element not in BV,element not in BV,0.95,0.63,cubic,-1.799,0.557,0.388,10.720,0.000,3.770,3.770,3.770,90.0,90.0,90.0,-
PaCrO3,Pa,Cr,FALSE,element not in BV,element not in BV,0.95,0.58,cubic,-2.208,0.479,1.000,11.778,0.000,3.891,3.891,3.891,90.0,90.0,90.0,3.253
PaCsO3,Pa,Cs,FALSE,element not in BV,element not in BV,0.95,1.67,-,-,-,-,-,-,-,-,-,-,-,-,-
PaCuO3,Pa,Cu,FALSE,element not in BV,element not in BV,0.95,0.68,orthorhombic,-2.294,0.131,0.000,11.809,1.402,5.311,5.980,7.435,90.0,90.0,90.0,0.156
PaDyO3,Pa,Dy,FALSE,element not in BV,element not in BV,0.95,0.99,cubic,-2.379,0.941,0.391,15.670,0.000,4.279,4.279,4.279,90.0,90.0,90.0,3.282
PaErO3,Pa,Er,FALSE,element not in BV,element not in BV,0.95,0.89,cubic,-2.475,0.868,0.389,15.250,0.000,4.240,4.240,4.240,90.0,90.0,90.0,-
PaEuO3,Pa,Eu,FALSE,element not in BV,element not in BV,0.95,1.06,orthorhombic,-3.196,0.145,0.200,15.978,1.751,5.734,5.957,9.356,90.0,90.0,90.0,-7.593
PaFeO3,Pa,Fe,FALSE,element not in BV,element not in BV,0.95,0.67,cubic,-1.804,0.663,1.261,11.756,0.000,3.888,3.888,3.888,90.0,90.0,90.0,-
PaGaO3,Pa,Ga,FALSE,element not in BV,element not in BV,0.95,0.62,rhombohedral,-2.183,0.376,0.400,11.866,0.000,5.500,5.500,5.500,60.4,60.4,60.4,3.319
PaGdO3,Pa,Gd,FALSE,element not in BV,element not in BV,0.95,0.94,cubic,-2.267,1.023,0.394,16.219,0.000,4.328,4.328,4.328,90.0,90.0,90.0,2.844
PaGeO3,Pa,Ge,FALSE,element not in BV,element not in BV,0.95,0.63,cubic,-1.514,1.075,0.456,12.079,0.000,3.923,3.923,3.923,90.0,90.0,90.0,-
PaHfO3,Pa,Hf,FALSE,element not in BV,element not in BV,0.95,0.71,cubic,-2.502,0.731,0.463,13.735,0.000,4.095,4.095,4.095,90.0,90.0,90.0,3.187
PaHgO3,Pa,Hg,FALSE,element not in BV,element not in BV,0.95,1.11,orthorhombic,-1.915,0.260,0.200,15.677,0.680,5.699,6.204,8.868,90.0,90.0,90.0,-2.774
PaHoO3,Pa,Ho,FALSE,element not in BV,element not in BV,0.95,0.90,cubic,-2.428,0.903,0.389,15.421,0.000,4.256,4.256,4.256,90.0,90.0,90.0,3.413
PaInO3,Pa,In,FALSE,element not in BV,element not in BV,0.95,0.80,cubic,-1.510,0.972,0.400,13.602,0.000,4.082,4.082,4.082,90.0,90.0,90.0,-
PaIrO3,Pa,Ir,FALSE,element not in BV,element not in BV,0.95,0.63,cubic,-1.037,1.142,0.335,12.776,0.000,3.997,3.997,3.997,90.0,90.0,90.0,-1.955
PaKO3,Pa,K,FALSE,element not in BV,element not in BV,0.95,1.38,orthorhombic,-2.726,0.220,0.000,17.925,2.409,5.479,5.791,11.298,90.0,90.0,90.0,-
PaLaO3,Pa,La,FALSE,element not in BV,element not in BV,0.95,1.03,cubic,-1.857,1.393,0.400,18.457,0.000,4.519,4.519,4.519,90.0,90.0,90.0,1.225
PaLiO3,Pa,Li,FALSE,element not in BV,element not in BV,0.95,0.76,orthorhombic,-2.934,0.029,0.000,11.029,3.419,5.195,5.751,7.383,90.0,90.0,90.0,0.486
PaLuO3,Pa,Lu,FALSE,element not in BV,element not in BV,0.95,0.86,cubic,-2.603,0.772,0.383,14.472,0.000,4.167,4.167,4.167,90.0,90.0,90.0,3.934
PaMgO3,Pa,Mg,FALSE,element not in BV,element not in BV,0.95,0.72,cubic,-2.484,0.554,0.200,11.029,0.000,3.806,3.806,3.806,90.0,90.0,90.0,3.097
PaMnO3,Pa,Mn,FALSE,element not in BV,element not in BV,0.95,0.62,cubic,-2.024,0.650,1.200,12.006,0.000,3.916,3.916,3.916,90.0,90.0,90.0,2.564
PaMoO3,Pa,Mo,FALSE,element not in BV,element not in BV,0.95,0.62,cubic,-1.715,0.790,0.366,12.961,0.000,4.017,4.017,4.017,90.0,90.0,90.0,-
PaNaO3,Pa,Na,FALSE,element not in BV,element not in BV,0.95,1.02,orthorhombic,-2.759,0.156,0.000,13.836,3.279,5.442,5.714,8.898,90.0,90.0,90.0,-3.035
PaNbO3,Pa,Nb,FALSE,element not in BV,element not in BV,0.95,0.68,cubic,-1.980,0.741,0.479,13.421,0.000,4.064,4.064,4.064,90.0,90.0,90.0,1.448
PaNdO3,Pa,Nd,FALSE,element not in BV,element not in BV,0.95,0.98,cubic,-1.968,1.237,0.398,17.652,0.000,4.452,4.452,4.452,90.0,90.0,90.0,-
PaNiO3,Pa,Ni,FALSE,element not in BV,element not in BV,0.95,0.59,cubic,-1.822,0.533,0.126,10.976,0.000,3.800,3.800,3.800,90.0,90.0,90.0,1.724
PaNpO3,Pa,Np,FALSE,element not in BV,element not in BV,0.95,0.86,cubic,-2.366,0.790,1.196,16.510,0.000,4.354,4.354,4.354,90.0,90.0,90.0,-
PaOsO3,Pa,Os,FALSE,element not in BV,element not in BV,0.95,0.57,cubic,-1.092,1.116,0.291,12.579,0.000,3.977,3.977,3.977,90.0,90.0,90.0,-1.791
Pa2O3,Pa,Pa,FALSE,element not in BV,element not in BV,0.95,0.91,cubic,-1.768,1.021,0.779,18.002,0.000,4.482,4.482,4.482,90.0,90.0,90.0,-
PaPbO3,Pa,Pb,FALSE,element not in BV,element not in BV,0.95,0.99,orthorhombic,-2.224,0.186,0.200,17.360,1.193,5.806,6.046,9.891,90.0,90.0,90.0,-1.697
PaPdO3,Pa,Pd,FALSE,element not in BV,element not in BV,0.95,0.75,cubic,-1.166,1.001,0.315,12.866,0.000,4.007,4.007,4.007,90.0,90.0,90.0,-1.200
PaPmO3,Pa,Pm,FALSE,element not in BV,element not in BV,0.95,0.97,cubic,-2.062,1.171,0.398,17.294,0.000,4.422,4.422,4.422,90.0,90.0,90.0,2.216
PaPrO3,Pa,Pr,FALSE,element not in BV,element not in BV,0.95,0.92,cubic,-1.888,1.294,0.398,18.213,0.000,4.499,4.499,4.499,90.0,90.0,90.0,0.290
PaPtO3,Pa,Pt,FALSE,element not in BV,element not in BV,0.95,0.67,cubic,-0.960,1.136,0.358,13.395,0.000,4.061,4.061,4.061,90.0,90.0,90.0,-1.815
PaPuO3,Pa,Pu,FALSE,element not in BV,element not in BV,0.95,0.83,-,-,-,-,-,-,-,-,-,-,-,-,-
PaRbO3,Pa,Rb,FALSE,element not in BV,element not in BV,0.95,1.52,orthorhombic,-2.700,0.228,0.000,19.540,2.207,5.412,5.796,12.459,90.0,90.0,90.0,-
PaReO3,Pa,Re,FALSE,element not in BV,element not in BV,0.95,0.57,cubic,-1.293,1.078,0.284,12.557,0.000,3.975,3.975,3.975,90.0,90.0,90.0,-0.585
PaRhO3,Pa,Rh,FALSE,element not in BV,element not in BV,0.95,0.61,cubic,-1.295,0.876,0.295,12.432,0.000,3.961,3.961,3.961,90.0,90.0,90.0,-1.288
PaRuO3,Pa,Ru,FALSE,element not in BV,element not in BV,0.95,0.62,cubic,-1.338,0.901,0.239,12.230,0.000,3.940,3.940,3.940,90.0,90.0,90.0,-1.409
PaSbO3,Pa,Sb,FALSE,element not in BV,element not in BV,0.95,0.68,cubic,-1.130,1.256,0.481,15.457,0.000,4.260,4.260,4.260,90.0,90.0,90.0,-0.278
PaScO3,Pa,Sc,FALSE,element not in BV,element not in BV,0.95,0.75,cubic,-2.751,0.547,0.370,13.051,0.000,4.026,4.026,4.026,90.0,90.0,90.0,4.351
PaSiO3,Pa,Si,FALSE,element not in BV,element not in BV,0.95,0.40,cubic,-1.841,0.981,0.481,11.147,0.000,3.820,3.820,3.820,90.0,90.0,90.0,1.990
PaSmO3,Pa,Sm,FALSE,element not in BV,element not in BV,0.95,0.96,cubic,-2.118,1.127,0.397,17.003,0.000,4.397,4.397,4.397,90.0,90.0,90.0,-
PaSnO3,Pa,Sn,FALSE,element not in BV,element not in BV,0.95,0.69,cubic,-1.340,1.134,0.515,13.815,0.000,4.103,4.103,4.103,90.0,90.0,90.0,-
PaSrO3,Pa,Sr,FALSE,element not in BV,element not in BV,0.95,1.18,tetragonal,-2.718,0.463,0.200,17.429,0.678,3.796,3.796,6.049,90.0,90.0,90.0,-8.015
PaTaO3,Pa,Ta,FALSE,element not in BV,element not in BV,0.95,0.68,cubic,-2.061,0.675,0.396,13.081,0.000,4.029,4.029,4.029,90.0,90.0,90.0,1.586
PaTbO3,Pa,Tb,FALSE,element not in BV,element not in BV,0.95,0.84,cubic,-2.194,0.981,0.393,15.923,0.000,4.302,4.302,4.302,90.0,90.0,90.0,2.993
PaTcO3,Pa,Tc,FALSE,element not in BV,element not in BV,0.95,0.60,cubic,-1.481,0.888,0.145,12.438,0.000,3.962,3.962,3.962,90.0,90.0,90.0,-0.246
PaTeO3,Pa,Te,FALSE,element not in BV,element not in BV,0.95,0.77,cubic,-0.832,1.418,0.504,15.408,0.000,4.255,4.255,4.255,90.0,90.0,90.0,-0.625
PaThO3,Pa,Th,FALSE,element not in BV,element not in BV,0.95,0.94,cubic,-2.162,1.309,0.573,19.206,0.000,4.579,4.579,4.579,90.0,90.0,90.0,0.173
PaTiO3,Pa,Ti,FALSE,element not in BV,element not in BV,0.95,0.71,orthorhombic,-2.832,0.125,0.200,12.303,0.000,5.419,6.010,7.555,90.0,90.0,90.0,4.256
PaTlO3,Pa,Tl,FALSE,element not in BV,element not in BV,0.95,1.20,orthorhombic,-1.938,0.625,0.203,15.913,0.000,5.991,6.276,8.464,90.0,90.0,90.0,-0.857
PaTmO3,Pa,Tm,FALSE,element not in BV,element not in BV,0.95,0.96,cubic,-2.533,0.828,0.387,14.962,0.000,4.214,4.214,4.214,90.0,90.0,90.0,3.810
PaUO3,Pa,U,FALSE,element not in BV,element not in BV,0.95,0.85,-,-,-,-,-,-,-,-,-,-,-,-,-
PaVO3,Pa,V,FALSE,element not in BV,element not in BV,0.95,0.64,cubic,-2.264,0.500,0.800,12.113,0.000,3.927,3.927,3.927,90.0,90.0,90.0,2.604
PaWO3,Pa,W,FALSE,element not in BV,element not in BV,0.95,0.63,cubic,-1.574,0.938,0.466,13.012,0.000,4.022,4.022,4.022,90.0,90.0,90.0,0.050
PaYO3,Pa,Y,FALSE,element not in BV,element not in BV,0.95,0.90,cubic,-2.353,0.946,0.391,15.618,0.000,4.274,4.274,4.274,90.0,90.0,90.0,3.128
PaYbO3,Pa,Yb,FALSE,element not in BV,element not in BV,0.95,0.95,cubic,-0.951,2.356,0.200,25.247,0.341,5.016,5.016,5.016,90.0,90.0,90.0,-12.498
PaZnO3,Pa,Zn,FALSE,element not in BV,element not in BV,0.95,0.74,cubic,-1.765,0.754,0.204,11.677,0.000,3.879,3.879,3.879,90.0,90.0,90.0,0.884
PaZrO3,Pa,Zr,FALSE,element not in BV,element not in BV,0.95,0.72,cubic,-2.358,0.752,0.449,14.262,0.000,4.147,4.147,4.147,90.0,90.0,90.0,2.907
PbAcO3,Pb,Ac,FALSE,element not in BV,element not in BV,1.49,1.12,cubic,-1.799,0.608,0.110,19.884,0.000,4.633,4.633,4.633,90.0,90.0,90.0,-0.558
PbAgO3,Pb,Ag,FALSE,not balanced,not balanced,1.49,0.95,orthorhombic,-0.677,0.097,-,13.293,0.000,5.520,5.787,8.323,90.0,90.0,90.0,-0.648
PbAlO3,Pb,Al,FALSE,not balanced,not balanced,1.49,0.54,orthorhombic,-2.115,0.135,-,10.835,0.000,5.314,5.413,7.534,90.0,90.0,90.0,0.559
PbAsO3,Pb,As,FALSE,not balanced,not balanced,1.49,0.52,tetragonal,-1.363,0.165,-,13.674,0.000,3.874,3.874,4.556,90.0,90.0,90.0,1.954
PbAuO3,Pb,Au,FALSE,element not in BV,element not in BV,1.49,0.93,orthorhombic,-0.606,0.157,-,13.635,0.000,5.683,5.928,8.094,90.0,90.0,90.0,0.078
PbBO3,Pb,B,FALSE,not balanced,not balanced,1.49,0.27,cubic,-0.901,1.074,-,8.811,0.000,3.532,3.532,3.532,90.0,90.0,90.0,-0.351
PbBaO3,Pb,Ba,FALSE,not balanced,not balanced,1.49,1.35,orthorhombic,-1.723,0.224,-,19.236,0.367,6.153,6.322,9.889,90.0,90.0,90.0,-1.982
PbBeO3,Pb,Be,FALSE,4,2,0.94,0.45,cubic,-1.230,0.625,-,9.405,0.000,3.609,3.609,3.609,90.0,90.0,90.0,-2.682
PbBiO3,Pb,Bi,FALSE,not balanced,not balanced,1.49,0.90,rhombohedral,-1.257,0.101,-,15.787,0.000,6.021,6.021,6.021,61.0,61.0,61.0,0.568
PbCaO3,Pb,Ca,FALSE,not balanced,not balanced,1.49,1.00,cubic,-1.165,0.890,-,16.014,0.000,4.310,4.310,4.310,90.0,90.0,90.0,-3.853
PbCdO3,Pb,Cd,FALSE,not balanced,not balanced,1.49,0.95,cubic,-0.598,0.620,-,14.512,0.000,4.171,4.171,4.171,90.0,90.0,90.0,-2.360
PbCeO3,Pb,Ce,FALSE,2,4,1.49,0.87,cubic,-1.755,0.622,0.197,18.335,0.000,4.509,4.509,4.509,90.0,90.0,90.0,-1.369
PbCoO3,Pb,Co,FALSE,2,4,1.49,0.53,orthorhombic,-1.077,0.184,0.164,11.444,0.000,5.301,5.541,7.793,90.0,90.0,90.0,0.756
PbCrO3,Pb,Cr,FALSE,2,4,1.49,0.55,orthorhombic,-1.790,0.080,0.468,11.637,0.000,5.425,5.554,7.724,90.0,90.0,90.0,1.768
PbCsO3,Pb,Cs,FALSE,not balanced,not balanced,1.49,1.67,orthorhombic,-0.844,0.381,-,18.534,0.000,4.870,5.785,13.158,90.0,90.0,90.0,-1.351
PbCuO3,Pb,Cu,FALSE,not balanced,not balanced,1.49,0.68,orthorhombic,-0.931,0.060,-,11.346,0.000,5.275,5.674,7.582,90.0,90.0,90.0,-1.079
PbDyO3,Pb,Dy,FALSE,not balanced,not balanced,1.49,0.99,orthorhombic,-2.420,0.122,0.001,14.878,0.000,5.805,6.055,8.466,90.0,90.0,90.0,-
PbErO3,Pb,Er,FALSE,not balanced,not balanced,1.49,0.89,orthorhombic,-2.446,0.119,0.000,14.584,0.000,5.766,6.019,8.405,90.0,90.0,90.0,-0.941
PbEuO3,Pb,Eu,FALSE,not balanced,not balanced,1.49,1.06,orthorhombic,-1.986,0.191,0.000,15.286,0.229,5.932,5.958,8.651,90.0,90.0,90.0,-2.642
PbFeO3,Pb,Fe,FALSE,2,4,1.49,0.59,orthorhombic,-1.359,0.083,0.871,11.787,0.000,5.420,5.599,7.768,90.0,90.0,90.0,0.789
PbGaO3,Pb,Ga,FALSE,not balanced,not balanced,1.49,0.62,orthorhombic,-1.532,0.138,-,11.720,0.000,5.418,5.595,7.732,90.0,90.0,90.0,-0.404
PbGdO3,Pb,Gd,FALSE,not balanced,not balanced,1.49,0.94,orthorhombic,-2.387,0.126,0.001,15.160,0.000,5.838,6.085,8.536,90.0,90.0,90.0,-0.992
PbGeO3,Pb,Ge,FALSE,2,4,1.49,0.53,tetragonal,-1.609,0.152,-,12.688,0.000,3.668,3.668,4.715,90.0,90.0,90.0,3.527
PbHfO3,Pb,Hf,TRUE,2,4,1.49,0.71,orthorhombic,-2.824,0.008,0.000,13.752,3.019,5.759,5.829,8.193,90.0,90.0,90.0,-
PbHgO3,Pb,Hg,FALSE,not balanced,not balanced,1.49,1.11,orthorhombic,-0.749,0.102,-,14.797,0.000,5.481,5.721,9.439,90.0,90.0,90.0,-0.961
PbHoO3,Pb,Ho,FALSE,not balanced,not balanced,1.49,0.90,orthorhombic,-2.433,0.121,0.000,14.710,0.000,5.782,6.041,8.423,90.0,90.0,90.0,-0.865
PbInO3,Pb,In,FALSE,not balanced,not balanced,1.49,0.80,orthorhombic,-1.436,0.103,-,13.805,0.000,5.671,5.912,8.235,90.0,90.0,90.0,-0.858
PbIrO3,Pb,Ir,FALSE,2,4,1.49,0.63,orthorhombic,-1.015,0.211,0.000,12.471,0.000,5.538,5.721,7.871,90.0,90.0,90.0,1.939
PbKO3,Pb,K,FALSE,not balanced,not balanced,1.49,1.38,orthorhombic,-1.137,0.109,-,18.281,0.000,5.353,6.470,10.555,90.0,90.0,90.0,-8.146
PbLaO3,Pb,La,FALSE,not balanced,not balanced,1.49,1.03,cubic,-1.905,0.568,0.200,18.231,0.000,4.500,4.500,4.500,90.0,90.0,90.0,-0.960
PbLiO3,Pb,Li,FALSE,not balanced,not balanced,1.49,0.76,cubic,-0.608,0.738,-,10.351,0.000,3.727,3.727,3.727,90.0,90.0,90.0,-4.297
PbLuO3,Pb,Lu,FALSE,not balanced,not balanced,1.49,0.86,orthorhombic,-2.482,0.116,0.000,14.161,0.000,5.714,5.960,8.316,90.0,90.0,90.0,-0.616
PbMgO3,Pb,Mg,FALSE,not balanced,not balanced,1.49,0.72,cubic,-1.304,0.543,-,12.140,0.000,3.930,3.930,3.930,90.0,90.0,90.0,-3.405
PbMnO3,Pb,Mn,FALSE,2,4,1.49,0.53,orthorhombic,-1.560,0.065,0.631,11.666,0.000,5.442,5.536,7.743,90.0,90.0,90.0,1.118
PbMoO3,Pb,Mo,FALSE,2,4,1.49,0.65,tetragonal,-1.751,0.137,0.000,12.931,0.000,3.999,3.999,4.043,90.0,90.0,90.0,4.758
PbNaO3,Pb,Na,FALSE,not balanced,not balanced,1.49,1.02,orthorhombic,-0.912,0.342,-,13.354,0.000,5.683,5.717,8.221,90.0,90.0,90.0,-6.319
PbNbO3,Pb,Nb,FALSE,2,4,1.49,0.68,orthorhombic,-2.173,0.127,0.002,13.477,0.000,5.739,5.764,8.148,90.0,90.0,90.0,-
PbNdO3,Pb,Nd,FALSE,not balanced,not balanced,1.49,0.98,cubic,-1.859,0.572,0.202,17.985,0.000,4.480,4.480,4.480,90.0,90.0,90.0,-1.161
PbNiO3,Pb,Ni,FALSE,2,4,1.49,0.48,orthorhombic,-1.163,0.002,0.397,11.185,0.000,5.264,5.479,7.756,90.0,90.0,90.0,-1.411
PbNpO3,Pb,Np,FALSE,element not in BV,element not in BV,1.49,0.86,orthorhombic,-2.633,0.122,0.600,16.074,2.381,6.006,6.204,8.628,90.0,90.0,90.0,-
PbOsO3,Pb,Os,FALSE,element not in BV,element not in BV,1.49,0.57,orthorhombic,-1.088,0.150,0.162,12.537,0.000,5.602,5.659,7.910,90.0,90.0,90.0,3.296