Chemical formula,A,B,In literature,Valence A,Valence B,Radius A [ang],Radius B [ang],Lowest distortion,Formation energy [eV/atom],Stability [eV/atom],Magnetic moment [mu_B],Volume per atom [A^3/atom],Band gap [eV],a [ang],b [ang],c [ang],alpha [deg],beta [deg],gamma [deg],Vacancy energy [eV/O atom]
TeInO3,Te,In,FALSE,not balanced,not balanced,0.77,0.80,cubic,-0.653,0.882,-,14.253,0.000,4.146,4.146,4.146,90.0,90.0,90.0,-3.312
TeIrO3,Te,Ir,FALSE,2,4,0.97,0.63,cubic,-0.313,0.786,-0.001,12.569,0.000,3.976,3.976,3.976,90.0,90.0,90.0,0.617
TeKO3,Te,K,FALSE,not balanced,not balanced,0.77,1.38,orthorhombic,-1.338,0.147,-,17.478,0.000,6.065,6.192,9.309,90.0,90.0,90.0,-4.898
TeLaO3,Te,La,FALSE,not balanced,not balanced,0.77,1.03,cubic,-1.246,1.292,0.127,18.539,0.000,4.526,4.526,4.526,90.0,90.0,90.0,-6.948
TeLiO3,Te,Li,FALSE,not balanced,not balanced,0.77,0.76,cubic,-0.541,1.103,-,9.448,0.000,3.615,3.615,3.615,90.0,90.0,90.0,-4.369
TeLuO3,Te,Lu,FALSE,not balanced,not balanced,0.77,0.86,cubic,-1.680,0.919,0.000,14.919,0.000,4.210,4.210,4.210,90.0,90.0,90.0,-3.744
TeMgO3,Te,Mg,FALSE,not balanced,not balanced,0.77,0.72,cubic,-1.124,0.887,-,11.083,0.000,3.812,3.812,3.812,90.0,90.0,90.0,-2.829
TeMnO3,Te,Mn,FALSE,2,4,0.97,0.53,cubic,-1.028,0.657,0.740,11.661,0.000,3.878,3.878,3.878,90.0,90.0,90.0,2.225
TeMoO3,Te,Mo,FALSE,2,4,0.97,0.65,cubic,-1.078,0.652,0.013,12.801,0.000,4.000,4.000,4.000,90.0,90.0,90.0,2.382
TeNaO3,Te,Na,FALSE,not balanced,not balanced,0.77,1.02,orthorhombic,-1.363,0.208,-,13.733,0.000,5.581,5.827,8.446,90.0,90.0,90.0,-10.094
TeNbO3,Te,Nb,FALSE,1,5,0.97,0.64,cubic,-1.527,0.654,-0.001,13.550,0.000,4.077,4.077,4.077,90.0,90.0,90.0,2.841
TeNdO3,Te,Nd,FALSE,not balanced,not balanced,0.77,0.98,cubic,-1.217,1.272,0.000,18.133,0.000,4.492,4.492,4.492,90.0,90.0,90.0,-6.889
TeNiO3,Te,Ni,FALSE,2,4,0.97,0.48,cubic,-0.568,0.750,0.300,10.741,0.000,3.773,3.773,3.773,90.0,90.0,90.0,-1.076
TeNpO3,Te,Np,FALSE,element not in BV,element not in BV,0.77,0.86,cubic,-1.681,0.936,0.233,16.839,0.000,4.383,4.383,4.383,90.0,90.0,90.0,-0.784
TeOsO3,Te,Os,FALSE,element not in BV,element not in BV,0.77,0.57,cubic,-0.435,0.694,0.031,12.488,0.000,3.967,3.967,3.967,90.0,90.0,90.0,1.041
TePaO3,Te,Pa,FALSE,element not in BV,element not in BV,0.77,0.91,orthorhombic,-2.030,0.219,0.000,17.509,0.335,5.795,6.075,9.946,90.0,90.0,90.0,2.508
TePbO3,Te,Pb,FALSE,2,4,0.97,0.78,orthorhombic,-1.353,0.022,-,16.626,1.710,6.240,6.604,8.069,90.0,90.0,90.0,0.913
TePdO3,Te,Pd,FALSE,2,4,0.97,0.62,cubic,-0.217,0.823,-,12.741,0.000,3.994,3.994,3.994,90.0,90.0,90.0,-0.898
TePmO3,Te,Pm,FALSE,element not in BV,element not in BV,0.77,0.97,cubic,-1.277,1.146,-0.001,17.752,0.000,4.461,4.461,4.461,90.0,90.0,90.0,-5.572
TePrO3,Te,Pr,FALSE,2,4,0.97,0.85,cubic,-1.165,1.277,0.000,18.551,0.000,4.527,4.527,4.527,90.0,90.0,90.0,-7.146
TePtO3,Te,Pt,FALSE,element not in BV,element not in BV,0.77,0.67,cubic,-0.152,0.864,0.001,13.102,0.000,4.031,4.031,4.031,90.0,90.0,90.0,-0.244
TePuO3,Te,Pu,FALSE,element not in BV,element not in BV,0.77,0.83,cubic,-1.698,0.723,0.733,16.776,0.000,4.377,4.377,4.377,90.0,90.0,90.0,0.557
TeRbO3,Te,Rb,FALSE,not balanced,not balanced,0.77,1.52,orthorhombic,-1.372,0.101,-,20.896,0.232,6.066,6.331,10.882,90.0,90.0,90.0,-12.686
TeReO3,Te,Re,FALSE,not balanced,not balanced,0.97,0.53,cubic,-0.740,0.781,0.081,12.585,0.000,3.977,3.977,3.977,90.0,90.0,90.0,1.672
TeRhO3,Te,Rh,FALSE,2,4,0.97,0.60,cubic,-0.408,0.683,0.000,12.356,0.000,3.953,3.953,3.953,90.0,90.0,90.0,0.665
TeRuO3,Te,Ru,FALSE,1,5,0.97,0.57,cubic,-0.524,0.662,0.039,12.299,0.000,3.947,3.947,3.947,90.0,90.0,90.0,1.096
TeSbO3,Te,Sb,FALSE,1,5,0.97,0.60,cubic,-0.691,0.690,-,14.064,0.000,4.128,4.128,4.128,90.0,90.0,90.0,-0.481
TeScO3,Te,Sc,FALSE,not balanced,not balanced,0.77,0.75,cubic,-1.749,0.749,0.000,13.235,0.000,4.045,4.045,4.045,90.0,90.0,90.0,-2.076
TeSiO3,Te,Si,FALSE,2,4,0.97,0.40,cubic,-1.270,0.964,-,10.312,0.000,3.722,3.722,3.722,90.0,90.0,90.0,1.411
TeSmO3,Te,Sm,FALSE,not balanced,not balanced,0.77,0.96,cubic,-1.313,1.184,0.074,17.438,0.000,4.434,4.434,4.434,90.0,90.0,90.0,-6.339
TeSnO3,Te,Sn,FALSE,2,4,0.97,0.69,cubic,-0.903,0.659,-,13.718,0.000,4.093,4.093,4.093,90.0,90.0,90.0,1.638
TeSrO3,Te,Sr,FALSE,not balanced,not balanced,0.77,1.18,orthorhombic,-2.200,0.010,-,17.044,3.492,5.956,6.606,8.664,90.0,90.0,90.0,-10.574
TeTaO3,Te,Ta,FALSE,1,5,0.97,0.64,cubic,-1.705,0.686,0.000,13.359,0.000,4.057,4.057,4.057,90.0,90.0,90.0,3.271
TeTbO3,Te,Tb,FALSE,2,4,0.97,0.76,cubic,-1.332,1.084,0.001,16.483,0.000,4.352,4.352,4.352,90.0,90.0,90.0,-5.397
TeTcO3,Te,Tc,FALSE,element not in BV,element not in BV,0.77,0.60,cubic,-0.772,0.638,0.238,12.499,0.000,3.968,3.968,3.968,90.0,90.0,90.0,1.702
Te2O3,Te,Te,FALSE,not balanced,not balanced,0.77,0.77,cubic,-0.427,0.743,-,14.939,0.000,4.211,4.211,4.211,90.0,90.0,90.0,-1.302
TeThO3,Te,Th,FALSE,not balanced,not balanced,0.77,0.94,cubic,-1.976,0.967,0.000,19.105,0.000,4.571,4.571,4.571,90.0,90.0,90.0,-0.737
TeTiO3,Te,Ti,FALSE,2,4,0.97,0.61,cubic,-1.754,0.581,-0.003,12.204,0.000,3.937,3.937,3.937,90.0,90.0,90.0,2.349
TeTlO3,Te,Tl,FALSE,not balanced,not balanced,0.77,1.20,orthorhombic,-1.066,0.108,-,15.821,0.000,6.019,6.373,8.249,90.0,90.0,90.0,-5.499
TeTmO3,Te,Tm,FALSE,not balanced,not balanced,0.77,0.96,cubic,-1.622,0.967,0.000,15.379,0.000,4.252,4.252,4.252,90.0,90.0,90.0,-4.241
TeUO3,Te,U,FALSE,1,5,0.97,0.76,cubic,-2.051,0.630,-0.117,16.672,0.000,4.368,4.368,4.368,90.0,90.0,90.0,2.696
TeVO3,Te,V,FALSE,2,4,0.97,0.58,cubic,-1.322,0.579,-0.356,11.833,0.000,3.897,3.897,3.897,90.0,90.0,90.0,1.880
TeWO3,Te,W,FALSE,2,4,0.97,0.66,cubic,-1.135,0.822,0.000,12.849,0.000,4.005,4.005,4.005,90.0,90.0,90.0,2.769
TeYO3,Te,Y,FALSE,not balanced,not balanced,0.77,0.90,cubic,-1.480,1.059,0.000,16.197,0.000,4.326,4.326,4.326,90.0,90.0,90.0,-5.093
TeYbO3,Te,Yb,FALSE,not balanced,not balanced,0.77,0.95,cubic,-0.880,1.428,-,14.573,0.000,4.177,4.177,4.177,90.0,90.0,90.0,-7.895
TeZnO3,Te,Zn,FALSE,not balanced,not balanced,0.77,0.74,cubic,-0.543,0.918,-,11.549,0.000,3.865,3.865,3.865,90.0,90.0,90.0,-3.099
TeZrO3,Te,Zr,FALSE,2,4,0.97,0.72,cubic,-1.913,0.660,0.000,14.536,0.000,4.173,4.173,4.173,90.0,90.0,90.0,1.661
ThAcO3,Th,Ac,FALSE,element not in BV,element not in BV,1.21,1.12,cubic,-2.187,1.549,0.013,20.280,0.000,4.663,4.663,4.663,90.0,90.0,90.0,-1.367
ThAgO3,Th,Ag,FALSE,not balanced,not balanced,1.21,0.95,cubic,-1.660,0.988,0.000,13.735,0.000,4.095,4.095,4.095,90.0,90.0,90.0,-0.232
ThAlO3,Th,Al,FALSE,not balanced,not balanced,1.21,0.54,cubic,-3.237,0.394,0.000,11.019,0.000,3.805,3.805,3.805,90.0,90.0,90.0,5.986
ThAsO3,Th,As,FALSE,4,2,1.21,0.58,cubic,-1.892,1.132,0.000,13.529,0.000,4.075,4.075,4.075,90.0,90.0,90.0,1.662
ThAuO3,Th,Au,FALSE,element not in BV,element not in BV,1.21,0.93,cubic,-1.421,1.215,0.000,14.398,0.000,4.160,4.160,4.160,90.0,90.0,90.0,-1.250
ThBO3,Th,B,FALSE,4,2,1.21,0.27,cubic,-2.270,1.180,0.000,9.917,0.000,3.674,3.674,3.674,90.0,90.0,90.0,4.341
ThBaO3,Th,Ba,FALSE,4,2,1.21,1.35,orthorhombic,-3.345,0.275,0.000,19.059,2.709,6.799,6.829,8.210,90.0,90.0,90.0,-2.473
ThBeO3,Th,Be,FALSE,4,2,1.21,0.45,orthorhombic,-3.359,0.369,0.000,9.908,3.063,5.182,5.221,7.325,90.0,90.0,90.0,5.796
ThBiO3,Th,Bi,FALSE,not balanced,not balanced,1.21,0.90,cubic,-1.528,1.506,0.004,17.113,0.000,4.407,4.407,4.407,90.0,90.0,90.0,-0.399
ThCaO3,Th,Ca,FALSE,4,2,1.21,1.00,cubic,-2.698,1.122,0.000,14.304,0.815,4.151,4.151,4.151,90.0,90.0,90.0,-
ThCdO3,Th,Cd,FALSE,4,2,1.21,0.95,cubic,-1.890,1.147,0.000,14.427,0.000,4.163,4.163,4.163,90.0,90.0,90.0,0.436
ThCeO3,Th,Ce,FALSE,4,2,1.21,1.01,cubic,-2.346,1.370,0.005,18.717,0.000,4.540,4.540,4.540,90.0,90.0,90.0,0.544
ThCoO3,Th,Co,FALSE,4,2,1.21,0.75,orthorhombic,-2.947,0.093,0.600,12.397,1.864,5.409,5.933,7.727,90.0,90.0,90.0,3.147
ThCrO3,Th,Cr,FALSE,4,2,1.21,0.80,orthorhombic,-3.282,0.088,0.800,13.172,2.020,5.486,6.329,7.588,90.0,90.0,90.0,4.110
ThCsO3,Th,Cs,FALSE,not balanced,not balanced,1.21,1.67,orthorhombic,-2.674,0.353,0.184,23.044,0.000,5.730,5.999,13.409,90.0,90.0,90.0,-
ThCuO3,Th,Cu,FALSE,4,2,1.21,0.73,orthorhombic,-2.745,0.120,0.000,12.504,0.000,5.328,6.293,7.458,90.0,90.0,90.0,2.296
ThDyO3,Th,Dy,FALSE,4,2,1.21,1.07,cubic,-2.934,0.897,0.000,15.705,0.000,4.282,4.282,4.282,90.0,90.0,90.0,3.257
ThErO3,Th,Er,FALSE,not balanced,not balanced,1.21,0.89,cubic,-3.030,0.825,0.000,15.291,0.000,4.244,4.244,4.244,90.0,90.0,90.0,3.610
ThEuO3,Th,Eu,FALSE,not balanced,not balanced,1.21,1.06,cubic,-2.424,1.477,0.011,16.145,0.000,4.322,4.322,4.322,90.0,90.0,90.0,-2.885
ThFeO3,Th,Fe,FALSE,4,2,1.21,0.78,cubic,-2.539,0.611,0.850,11.828,0.000,3.896,3.896,3.896,90.0,90.0,90.0,3.482
ThGaO3,Th,Ga,FALSE,not balanced,not balanced,1.21,0.62,cubic,-2.577,0.665,0.000,11.942,0.000,3.909,3.909,3.909,90.0,90.0,90.0,3.842
ThGdO3,Th,Gd,FALSE,not balanced,not balanced,1.21,0.94,cubic,-2.825,0.981,0.001,16.307,0.000,4.336,4.336,4.336,90.0,90.0,90.0,2.857
ThGeO3,Th,Ge,FALSE,4,2,1.21,0.73,cubic,-2.114,1.026,0.000,12.904,0.000,4.011,4.011,4.011,90.0,90.0,90.0,1.598
ThHfO3,Th,Hf,FALSE,4,2,1.21,0.71,cubic,-3.036,0.658,0.002,13.852,0.000,4.107,4.107,4.107,90.0,90.0,90.0,3.617
ThHgO3,Th,Hg,FALSE,4,2,1.21,1.02,cubic,-1.331,1.393,0.000,15.330,0.000,4.248,4.248,4.248,90.0,90.0,90.0,-1.766
ThHoO3,Th,Ho,FALSE,4,2,1.21,0.90,cubic,-2.983,0.860,0.000,15.464,0.000,4.260,4.260,4.260,90.0,90.0,90.0,3.446
ThInO3,Th,In,FALSE,4,2,1.21,0.80,cubic,-2.090,1.067,0.000,16.127,0.000,4.320,4.320,4.320,90.0,90.0,90.0,-
ThIrO3,Th,Ir,FALSE,not balanced,not balanced,1.21,0.63,cubic,-1.754,1.107,0.000,12.993,0.000,4.020,4.020,4.020,90.0,90.0,90.0,-0.592
ThKO3,Th,K,FALSE,not balanced,not balanced,1.21,1.38,orthorhombic,-2.710,0.338,0.185,19.470,0.000,5.924,5.940,11.066,90.0,90.0,90.0,-3.539
ThLaO3,Th,La,FALSE,not balanced,not balanced,1.21,1.03,cubic,-2.466,1.314,0.001,18.489,0.000,4.522,4.522,4.522,90.0,90.0,90.0,0.496
ThLiO3,Th,Li,FALSE,not balanced,not balanced,1.21,0.76,orthorhombic,-2.960,0.230,0.200,11.706,0.000,5.129,6.068,7.523,90.0,90.0,90.0,-0.614
ThLuO3,Th,Lu,FALSE,not balanced,not balanced,1.21,0.86,cubic,-3.160,0.728,-0.003,14.621,0.000,4.181,4.181,4.181,90.0,90.0,90.0,4.104
ThMgO3,Th,Mg,FALSE,4,2,1.21,0.72,orthorhombic,-3.599,0.122,0.000,12.347,5.339,5.460,5.794,7.806,90.0,90.0,90.0,5.269
ThMnO3,Th,Mn,FALSE,4,2,1.21,0.83,cubic,-2.740,0.617,0.910,12.324,0.000,3.950,3.950,3.950,90.0,90.0,90.0,3.746
ThMoO3,Th,Mo,FALSE,4,2,1.21,0.65,cubic,-2.309,0.880,0.010,12.816,0.000,4.002,4.002,4.002,90.0,90.0,90.0,1.416
ThNaO3,Th,Na,FALSE,not balanced,not balanced,1.21,1.02,cubic,-2.092,0.983,0.200,12.146,0.000,3.931,3.931,3.931,90.0,90.0,90.0,-2.198
ThNbO3,Th,Nb,FALSE,4,2,1.21,0.72,cubic,-2.593,0.811,0.000,13.440,0.000,4.066,4.066,4.066,90.0,90.0,90.0,2.293
ThNdO3,Th,Nd,FALSE,not balanced,not balanced,1.21,0.98,cubic,-2.530,1.219,0.001,17.778,0.000,4.463,4.463,4.463,90.0,90.0,90.0,1.698
ThNiO3,Th,Ni,FALSE,4,2,1.21,0.69,orthorhombic,-2.942,0.096,0.400,12.128,3.389,5.380,5.846,7.711,90.0,90.0,90.0,4.005
ThNpO3,Th,Np,FALSE,element not in BV,element not in BV,1.21,0.86,cubic,-2.663,1.039,0.879,17.416,0.000,4.432,4.432,4.432,90.0,90.0,90.0,1.326
ThOsO3,Th,Os,FALSE,element not in BV,element not in BV,1.21,0.57,cubic,-1.793,1.097,0.000,12.684,0.000,3.988,3.988,3.988,90.0,90.0,90.0,-0.387
ThPaO3,Th,Pa,FALSE,element not in BV,element not in BV,1.21,0.91,cubic,-2.285,1.186,0.524,18.025,0.000,4.483,4.483,4.483,90.0,90.0,90.0,0.112
ThPbO3,Th,Pb,FALSE,not balanced,not balanced,1.21,0.99,cubic,-1.484,1.586,0.002,16.360,0.000,4.341,4.341,4.341,90.0,90.0,90.0,-0.361
ThPdO3,Th,Pd,FALSE,4,2,1.21,0.86,cubic,-1.925,0.877,0.000,13.100,0.000,4.031,4.031,4.031,90.0,90.0,90.0,0.306
ThPmO3,Th,Pm,FALSE,element not in BV,element not in BV,1.21,0.97,cubic,-2.619,1.139,0.000,17.262,0.000,4.419,4.419,4.419,90.0,90.0,90.0,2.035
ThPrO3,Th,Pr,FALSE,not balanced,not balanced,1.21,0.92,cubic,-2.444,1.291,0.003,18.143,0.000,4.493,4.493,4.493,90.0,90.0,90.0,1.508
ThPtO3,Th,Pt,FALSE,element not in BV,element not in BV,1.21,0.67,cubic,-1.677,1.102,0.000,13.576,0.000,4.079,4.079,4.079,90.0,90.0,90.0,-0.628
ThPuO3,Th,Pu,FALSE,element not in BV,element not in BV,1.21,0.83,cubic,-2.262,1.504,1.168,21.917,0.000,4.785,4.785,4.785,90.0,90.0,90.0,-2.088
ThRbO3,Th,Rb,FALSE,not balanced,not balanced,1.21,1.52,orthorhombic,-2.676,0.347,0.187,21.015,0.000,5.906,5.958,11.945,90.0,90.0,90.0,-
ThReO3,Th,Re,FALSE,4,2,1.21,0.63,cubic,-1.953,1.102,0.019,12.730,0.000,3.993,3.993,3.993,90.0,90.0,90.0,0.644
ThRhO3,Th,Rh,FALSE,not balanced,not balanced,1.21,0.61,cubic,-2.052,0.801,0.000,12.684,0.000,3.988,3.988,3.988,90.0,90.0,90.0,0.403
ThRuO3,Th,Ru,FALSE,4,2,1.21,0.68,cubic,-2.076,0.846,0.000,12.477,0.000,3.966,3.966,3.966,90.0,90.0,90.0,0.279
ThSbO3,Th,Sb,FALSE,not balanced,not balanced,1.21,0.68,cubic,-1.710,1.359,0.002,15.580,0.000,4.271,4.271,4.271,90.0,90.0,90.0,-0.803
ThScO3,Th,Sc,FALSE,not balanced,not balanced,1.21,0.75,orthorhombic,-3.586,0.225,0.158,13.512,0.000,5.655,6.090,7.847,90.0,90.0,90.0,4.593
ThSiO3,Th,Si,FALSE,4,2,1.21,0.40,cubic,-2.362,1.119,0.000,11.695,0.000,3.881,3.881,3.881,90.0,90.0,90.0,1.378
ThSmO3,Th,Sm,FALSE,4,2,1.21,1.22,cubic,-2.675,1.101,0.000,17.026,0.000,4.399,4.399,4.399,90.0,90.0,90.0,2.330
ThSnO3,Th,Sn,FALSE,4,2,1.21,0.69,cubic,-1.912,1.245,0.002,14.743,0.000,4.193,4.193,4.193,90.0,90.0,90.0,-0.453
ThSrO3,Th,Sr,FALSE,4,2,1.21,1.18,cubic,-2.039,1.681,0.000,17.122,0.000,4.407,4.407,4.407,90.0,90.0,90.0,-4.355
ThTaO3,Th,Ta,FALSE,4,2,1.21,0.72,cubic,-2.630,0.795,0.000,13.249,0.000,4.046,4.046,4.046,90.0,90.0,90.0,2.376
ThTbO3,Th,Tb,FALSE,4,2,1.21,0.92,cubic,-2.751,0.936,0.000,15.979,0.000,4.307,4.307,4.307,90.0,90.0,90.0,3.063
ThTcO3,Th,Tc,FALSE,element not in BV,element not in BV,1.21,0.60,cubic,-2.169,0.884,0.146,12.585,0.000,3.977,3.977,3.977,90.0,90.0,90.0,1.117
ThTeO3,Th,Te,FALSE,4,2,1.21,0.97,cubic,-1.365,1.578,0.005,15.774,0.000,4.288,4.288,4.288,90.0,90.0,90.0,-0.902
Th2O3,Th,Th,FALSE,not balanced,not balanced,1.21,0.94,cubic,-2.678,1.135,0.342,19.110,0.000,4.572,4.572,4.572,90.0,90.0,90.0,-0.878
ThTiO3,Th,Ti,FALSE,4,2,1.21,0.86,orthorhombic,-3.355,0.284,0.001,12.621,0.000,5.502,5.982,7.669,90.0,90.0,90.0,4.390
ThTlO3,Th,Tl,FALSE,not balanced,not balanced,1.21,1.20,cubic,-1.505,1.382,0.000,15.651,0.000,4.277,4.277,4.277,90.0,90.0,90.0,-0.149
ThTmO3,Th,Tm,FALSE,4,2,1.21,1.03,cubic,-3.086,0.786,0.000,15.013,0.000,4.218,4.218,4.218,90.0,90.0,90.0,3.804
ThUO3,Th,U,FALSE,4,2,1.21,1.03,cubic,-2.146,1.542,0.769,22.757,0.000,4.846,4.846,4.846,90.0,90.0,90.0,-2.369
ThVO3,Th,V,FALSE,4,2,1.21,0.79,orthorhombic,-3.392,0.055,0.600,12.961,2.332,5.476,6.015,7.869,90.0,90.0,90.0,3.910
ThWO3,Th,W,FALSE,4,2,1.21,0.66,cubic,-2.188,1.007,0.001,12.870,0.000,4.007,4.007,4.007,90.0,90.0,90.0,1.059
ThYO3,Th,Y,FALSE,not balanced,not balanced,1.21,0.90,cubic,-2.910,0.901,0.000,15.725,0.000,4.284,4.284,4.284,90.0,90.0,90.0,3.271
ThYbO3,Th,Yb,FALSE,not balanced,not balanced,1.21,0.95,cubic,-2.840,1.106,0.000,14.427,0.379,4.163,4.163,4.163,90.0,90.0,90.0,0.492
ThZnO3,Th,Zn,FALSE,4,2,1.21,0.74,cubic,-2.594,0.608,0.000,12.005,0.000,3.915,3.915,3.915,90.0,90.0,90.0,3.275
ThZrO3,Th,Zr,FALSE,not balanced,not balanced,1.21,0.72,cubic,-2.908,0.743,0.000,14.343,0.000,4.155,4.155,4.155,90.0,90.0,90.0,3.230
TiAcO3,Ti,Ac,FALSE,element not in BV,element not in BV,0.74,1.12,rhombohedral,-3.156,0.287,0.200,16.959,0.598,6.304,6.304,6.304,58.1,58.1,58.1,-7.753
TiAgO3,Ti,Ag,FALSE,not balanced,not balanced,0.74,0.95,orthorhombic,-1.888,0.164,-0.001,12.473,0.000,5.172,5.483,8.798,90.0,90.0,90.0,-6.839
TiAlO3,Ti,Al,FALSE,3,3,0.67,0.54,cubic,-2.499,0.694,0.200,9.244,0.000,3.589,3.589,3.589,90.0,90.0,90.0,2.463
TiAsO3,Ti,As,FALSE,3,3,0.67,0.58,cubic,-1.120,1.308,0.385,11.390,0.000,3.847,3.847,3.847,90.0,90.0,90.0,0.483
TiAuO3,Ti,Au,FALSE,element not in BV,element not in BV,0.74,0.93,cubic,-0.278,1.761,0.288,13.043,0.000,4.025,4.025,4.025,90.0,90.0,90.0,-1.990
TiBO3,Ti,B,FALSE,3,3,0.67,0.27,cubic,-1.779,1.094,0.189,7.239,0.000,3.308,3.308,3.308,90.0,90.0,90.0,3.148
TiBaO3,Ti,Ba,FALSE,not balanced,not balanced,0.74,1.35,orthorhombic,-3.152,0.135,0.000,17.499,2.986,5.850,5.950,10.054,90.0,90.0,90.0,-13.843
TiBeO3,Ti,Be,FALSE,4,2,0.74,0.45,cubic,-2.121,1.011,0.000,7.526,0.000,3.351,3.351,3.351,90.0,90.0,90.0,-0.819
TiBiO3,Ti,Bi,FALSE,not balanced,not balanced,0.74,0.90,orthorhombic,-2.182,0.271,0.053,14.916,0.000,5.186,6.166,9.329,90.0,90.0,90.0,-0.215
TiCaO3,Ti,Ca,FALSE,not balanced,not balanced,0.74,1.00,orthorhombic,-3.201,0.167,0.000,13.209,2.645,5.420,5.540,8.799,90.0,90.0,90.0,-
TiCdO3,Ti,Cd,FALSE,not balanced,not balanced,0.74,0.95,orthorhombic,-2.313,0.168,0.000,12.529,2.417,5.395,5.506,8.436,90.0,90.0,90.0,-7.258
TiCeO3,Ti,Ce,FALSE,2,4,0.86,0.87,rhombohedral,-3.075,0.288,0.200,15.697,0.625,6.121,6.121,6.121,58.6,58.6,58.6,-7.580
TiCoO3,Ti,Co,FALSE,2,4,0.86,0.53,cubic,-1.343,1.145,-0.141,9.305,0.000,3.597,3.597,3.597,90.0,90.0,90.0,0.232
TiCrO3,Ti,Cr,FALSE,2,4,0.86,0.55,orthorhombic,-2.647,0.158,0.800,9.609,0.000,4.894,5.313,7.392,90.0,90.0,90.0,0.834
TiCsO3,Ti,Cs,FALSE,not balanced,not balanced,0.74,1.67,cubic,0.423,2.854,0.388,17.714,0.000,4.458,4.458,4.458,90.0,90.0,90.0,-16.579
TiCuO3,Ti,Cu,FALSE,3,3,0.67,0.54,cubic,-1.045,1.223,-0.149,9.617,0.000,3.636,3.636,3.636,90.0,90.0,90.0,-1.227
TiDyO3,Ti,Dy,FALSE,not balanced,not balanced,0.74,0.99,cubic,-1.846,1.640,0.207,15.290,0.000,4.244,4.244,4.244,90.0,90.0,90.0,-5.191
TiErO3,Ti,Er,FALSE,not balanced,not balanced,0.74,0.89,cubic,-1.936,1.574,0.197,14.873,0.000,4.205,4.205,4.205,90.0,90.0,90.0,-4.594
TiEuO3,Ti,Eu,FALSE,not balanced,not balanced,0.74,1.06,orthorhombic,-3.326,0.233,0.000,14.068,2.631,5.525,5.633,9.039,90.0,90.0,90.0,-10.005
TiFeO3,Ti,Fe,FALSE,2,4,0.86,0.59,cubic,-1.429,1.171,1.199,10.453,0.000,3.739,3.739,3.739,90.0,90.0,90.0,-0.463
TiGaO3,Ti,Ga,FALSE,3,3,0.67,0.62,cubic,-1.653,0.993,0.200,10.422,0.000,3.735,3.735,3.735,90.0,90.0,90.0,0.279
TiGdO3,Ti,Gd,FALSE,not balanced,not balanced,0.74,0.94,orthorhombic,-3.203,0.283,0.200,12.911,0.000,5.646,5.666,8.073,90.0,90.0,90.0,-5.794
TiGeO3,Ti,Ge,FALSE,2,4,0.86,0.53,cubic,-1.551,0.961,0.382,10.293,0.000,3.720,3.720,3.720,90.0,90.0,90.0,2.162
TiHfO3,Ti,Hf,FALSE,2,4,0.86,0.71,cubic,-2.561,0.839,0.400,13.202,0.000,4.041,4.041,4.041,90.0,90.0,90.0,1.519
TiHgO3,Ti,Hg,FALSE,not balanced,not balanced,0.74,1.11,orthorhombic,-1.975,0.152,0.000,13.864,2.063,5.301,5.832,8.969,90.0,90.0,90.0,-8.241
TiHoO3,Ti,Ho,FALSE,not balanced,not balanced,0.74,0.90,cubic,-1.892,1.606,0.200,15.103,0.000,4.227,4.227,4.227,90.0,90.0,90.0,-4.886
TiInO3,Ti,In,FALSE,not balanced,not balanced,0.74,0.80,cubic,-1.060,1.500,0.203,13.414,0.000,4.063,4.063,4.063,90.0,90.0,90.0,-3.907
TiIrO3,Ti,Ir,FALSE,2,4,0.86,0.63,cubic,0.075,2.340,0.029,18.273,0.000,4.504,4.504,4.504,90.0,90.0,90.0,-9.867
TiKO3,Ti,K,FALSE,not balanced,not balanced,0.74,1.38,orthorhombic,-2.365,0.232,0.000,15.820,0.000,5.853,6.422,8.417,90.0,90.0,90.0,-17.251
TiLaO3,Ti,La,FALSE,not balanced,not balanced,0.74,1.03,orthorhombic,-3.190,0.285,0.200,14.351,0.000,5.698,5.896,8.543,90.0,90.0,90.0,-7.528
TiLiO3,Ti,Li,FALSE,not balanced,not balanced,0.74,0.76,orthorhombic,-2.407,0.269,0.139,9.459,0.000,4.842,4.858,8.041,90.0,90.0,90.0,-4.334
TiLuO3,Ti,Lu,FALSE,not balanced,not balanced,0.74,0.86,cubic,-2.070,1.472,0.200,14.136,0.000,4.135,4.135,4.135,90.0,90.0,90.0,-3.709
TiMgO3,Ti,Mg,FALSE,not balanced,not balanced,0.74,0.72,cubic,-1.685,1.503,-0.002,10.017,0.000,3.686,3.686,3.686,90.0,90.0,90.0,-3.843
TiMnO3,Ti,Mn,FALSE,2,4,0.86,0.53,cubic,-1.615,1.222,0.725,10.401,0.000,3.733,3.733,3.733,90.0,90.0,90.0,-0.705
TiMoO3,Ti,Mo,FALSE,2,4,0.86,0.65,cubic,-1.638,0.954,0.433,11.878,0.000,3.902,3.902,3.902,90.0,90.0,90.0,-
TiNaO3,Ti,Na,FALSE,not balanced,not balanced,0.74,1.02,orthorhombic,-2.361,0.241,0.000,12.582,0.000,5.592,5.673,7.931,90.0,90.0,90.0,-10.414
TiNbO3,Ti,Nb,FALSE,2,4,0.86,0.68,cubic,-2.023,0.833,0.447,12.656,0.000,3.985,3.985,3.985,90.0,90.0,90.0,3.134
TiNdO3,Ti,Nd,FALSE,not balanced,not balanced,0.74,0.98,orthorhombic,-3.119,0.300,0.200,13.718,0.000,5.719,5.801,8.269,90.0,90.0,90.0,-6.992