Chemical formula,A,B,In literature,Valence A,Valence B,Radius A [ang],Radius B [ang],Lowest distortion,Formation energy [eV/atom],Stability [eV/atom],Magnetic moment [mu_B],Volume per atom [A^3/atom],Band gap [eV],a [ang],b [ang],c [ang],alpha [deg],beta [deg],gamma [deg],Vacancy energy [eV/O atom]
Rb2O3,Rb,Rb,FALSE,not balanced,not balanced,1.72,1.52,cubic,0.123,1.261,-,19.306,0.000,4.587,4.587,4.587,90.0,90.0,90.0,-2.630
RbReO3,Rb,Re,FALSE,1,5,1.72,0.58,cubic,-1.807,0.115,0.000,12.383,0.000,3.956,3.956,3.956,90.0,90.0,90.0,4.572
RbRhO3,Rb,Rh,FALSE,not balanced,not balanced,1.72,0.61,tetragonal,-0.992,0.192,0.397,14.963,0.000,3.834,3.834,5.090,90.0,90.0,90.0,0.140
RbRuO3,Rb,Ru,FALSE,1,5,1.72,0.57,cubic,-1.265,0.189,0.004,12.332,0.000,3.951,3.951,3.951,90.0,90.0,90.0,1.633
RbSbO3,Rb,Sb,FALSE,1,5,1.72,0.60,tetragonal,-1.659,0.194,-,16.604,0.000,3.763,3.763,5.864,90.0,90.0,90.0,1.916
RbScO3,Rb,Sc,FALSE,not balanced,not balanced,1.72,0.75,cubic,-2.136,0.336,0.399,14.952,0.000,4.213,4.213,4.213,90.0,90.0,90.0,-0.889
RbSiO3,Rb,Si,FALSE,not balanced,not balanced,1.72,0.40,cubic,-1.735,0.748,-,10.464,0.000,3.740,3.740,3.740,90.0,90.0,90.0,-1.340
RbSmO3,Rb,Sm,FALSE,not balanced,not balanced,1.72,0.96,cubic,-2.041,0.378,0.400,18.790,0.000,4.546,4.546,4.546,90.0,90.0,90.0,-0.755
RbSnO3,Rb,Sn,FALSE,not balanced,not balanced,1.72,0.69,cubic,-1.502,0.186,-,14.396,0.000,4.160,4.160,4.160,90.0,90.0,90.0,-
RbSrO3,Rb,Sr,FALSE,not balanced,not balanced,1.72,1.18,cubic,-1.038,0.776,-,20.058,0.000,4.646,4.646,4.646,90.0,90.0,90.0,-1.816
RbTaO3,Rb,Ta,FALSE,1,5,1.72,0.64,tetragonal,-2.824,0.048,0.000,13.367,2.228,4.027,4.027,4.121,90.0,90.0,90.0,6.335
RbTbO3,Rb,Tb,FALSE,not balanced,not balanced,1.72,0.84,rhombohedral,-1.979,0.370,0.400,17.947,0.000,6.318,6.318,6.318,60.3,60.3,60.3,-0.757
RbTcO3,Rb,Tc,FALSE,element not in BV,element not in BV,1.72,0.60,cubic,-1.724,0.095,-0.001,12.341,0.000,3.952,3.952,3.952,90.0,90.0,90.0,3.403
RbTeO3,Rb,Te,FALSE,not balanced,not balanced,1.72,0.77,cubic,-1.410,0.063,-,14.131,0.000,4.134,4.134,4.134,90.0,90.0,90.0,1.408
RbThO3,Rb,Th,FALSE,not balanced,not balanced,1.72,0.94,cubic,-2.831,0.192,0.193,19.014,0.000,4.564,4.564,4.564,90.0,90.0,90.0,0.483
RbTiO3,Rb,Ti,FALSE,not balanced,not balanced,1.72,0.71,tetragonal,-2.375,0.195,0.199,14.325,0.000,3.888,3.888,4.739,90.0,90.0,90.0,-0.395
RbTlO3,Rb,Tl,FALSE,not balanced,not balanced,1.72,1.20,rhombohedral,-0.597,0.457,-,16.369,0.000,6.137,6.137,6.137,60.1,60.1,60.1,-1.528
RbTmO3,Rb,Tm,FALSE,not balanced,not balanced,1.72,0.96,rhombohedral,-2.181,0.354,0.400,17.036,0.000,6.200,6.200,6.200,60.5,60.5,60.5,-0.698
RbUO3,Rb,U,TRUE,1,5,1.72,0.76,rhombohedral,-3.114,-0.053,0.200,16.684,2.986,6.179,6.179,6.179,60.0,60.0,60.0,4.513
RbVO3,Rb,V,FALSE,not balanced,not balanced,1.72,0.64,tetragonal,-2.230,0.139,0.000,13.884,0.390,3.692,3.692,5.092,90.0,90.0,90.0,1.402
RbWO3,Rb,W,FALSE,1,5,1.72,0.62,orthorhombic,-2.262,0.115,-0.001,12.654,0.000,5.632,5.636,7.973,90.0,90.0,90.0,5.767
RbYO3,Rb,Y,FALSE,not balanced,not balanced,1.72,0.90,orthorhombic,-2.107,0.366,0.400,17.984,0.000,6.299,6.366,8.970,90.0,90.0,90.0,-0.788
RbYbO3,Rb,Yb,FALSE,not balanced,not balanced,1.72,0.95,cubic,-1.316,0.724,-,16.528,0.000,4.356,4.356,4.356,90.0,90.0,90.0,-1.393
RbZnO3,Rb,Zn,FALSE,not balanced,not balanced,1.72,0.74,cubic,-0.625,0.671,-,13.106,0.000,4.032,4.032,4.032,90.0,90.0,90.0,-1.991
RbZrO3,Rb,Zr,FALSE,not balanced,not balanced,1.72,0.72,cubic,-2.593,0.071,0.200,15.275,0.000,4.243,4.243,4.243,90.0,90.0,90.0,0.129
ReAcO3,Re,Ac,FALSE,element not in BV,element not in BV,0.57,1.12,cubic,-0.321,2.237,1.050,19.192,0.000,4.578,4.578,4.578,90.0,90.0,90.0,-9.834
ReAgO3,Re,Ag,FALSE,5,1,0.58,1.15,cubic,0.863,2.384,0.855,12.798,0.000,4.000,4.000,4.000,90.0,90.0,90.0,-11.335
ReAlO3,Re,Al,FALSE,not balanced,not balanced,0.57,0.54,cubic,-1.143,1.258,0.769,9.817,0.000,3.661,3.661,3.661,90.0,90.0,90.0,-0.142
ReAsO3,Re,As,FALSE,not balanced,not balanced,0.57,0.52,cubic,0.099,1.619,1.006,11.820,0.000,3.895,3.895,3.895,90.0,90.0,90.0,-0.677
ReAuO3,Re,Au,FALSE,element not in BV,element not in BV,0.57,0.93,cubic,0.911,2.431,0.911,13.217,0.000,4.043,4.043,4.043,90.0,90.0,90.0,-10.174
ReBO3,Re,B,FALSE,5,1,0.58,0.27,cubic,-0.225,1.855,0.452,7.795,0.000,3.390,3.390,3.390,90.0,90.0,90.0,-0.383
ReBaO3,Re,Ba,FALSE,not balanced,not balanced,0.57,1.35,rhombohedral,-2.039,0.293,0.200,18.491,0.000,6.202,6.202,6.202,64.4,64.4,64.4,-16.108
ReBeO3,Re,Be,FALSE,4,2,0.63,0.45,cubic,-0.834,1.377,0.347,7.890,0.000,3.404,3.404,3.404,90.0,90.0,90.0,-1.923
ReBiO3,Re,Bi,FALSE,not balanced,not balanced,0.57,0.90,cubic,0.277,1.823,1.046,15.507,0.000,4.264,4.264,4.264,90.0,90.0,90.0,-7.977
ReCaO3,Re,Ca,FALSE,not balanced,not balanced,0.57,1.00,rhombohedral,-2.022,0.336,0.200,14.733,0.000,6.030,6.030,6.030,57.8,57.8,57.8,-13.338
ReCdO3,Re,Cd,FALSE,not balanced,not balanced,0.57,0.95,rhombohedral,-1.104,0.417,0.200,13.533,0.000,5.439,5.439,5.439,69.0,69.0,69.0,-11.737
ReCeO3,Re,Ce,FALSE,not balanced,not balanced,0.57,0.94,cubic,-0.273,2.256,0.796,18.147,0.000,4.494,4.494,4.494,90.0,90.0,90.0,-10.385
ReCoO3,Re,Co,FALSE,5,1,0.58,0.75,cubic,0.006,1.529,0.767,9.833,0.000,3.663,3.663,3.663,90.0,90.0,90.0,-5.095
ReCrO3,Re,Cr,FALSE,not balanced,not balanced,0.57,0.58,cubic,-0.575,1.434,1.399,11.036,0.000,3.807,3.807,3.807,90.0,90.0,90.0,-2.512
ReCsO3,Re,Cs,FALSE,5,1,0.58,1.67,cubic,1.459,3.389,1.033,17.612,0.000,4.449,4.449,4.449,90.0,90.0,90.0,-
ReCuO3,Re,Cu,FALSE,5,1,0.58,0.77,cubic,0.264,1.785,0.733,10.150,0.000,3.702,3.702,3.702,90.0,90.0,90.0,-6.222
ReDyO3,Re,Dy,FALSE,not balanced,not balanced,0.57,0.99,cubic,-0.674,2.020,0.797,15.606,0.000,4.273,4.273,4.273,90.0,90.0,90.0,-8.509
ReErO3,Re,Er,FALSE,not balanced,not balanced,0.57,0.89,cubic,-0.757,1.960,0.802,15.132,0.000,4.230,4.230,4.230,90.0,90.0,90.0,-7.945
ReEuO3,Re,Eu,FALSE,not balanced,not balanced,0.57,1.06,rhombohedral,-2.168,0.282,0.200,15.139,0.000,6.015,6.015,6.015,59.3,59.3,59.3,-14.217
ReFeO3,Re,Fe,FALSE,5,1,0.58,0.78,cubic,-0.135,1.497,1.795,11.050,0.000,3.809,3.809,3.809,90.0,90.0,90.0,-4.592
ReGaO3,Re,Ga,FALSE,not balanced,not balanced,0.57,0.62,cubic,-0.364,1.455,0.799,10.862,0.000,3.787,3.787,3.787,90.0,90.0,90.0,-3.090
ReGdO3,Re,Gd,FALSE,not balanced,not balanced,0.57,0.94,cubic,-0.583,2.131,0.905,16.101,0.000,4.318,4.318,4.318,90.0,90.0,90.0,-9.058
ReGeO3,Re,Ge,FALSE,not balanced,not balanced,0.57,0.63,cubic,-0.265,1.381,0.982,10.950,0.000,3.797,3.797,3.797,90.0,90.0,90.0,0.643
ReHfO3,Re,Hf,FALSE,not balanced,not balanced,0.57,0.71,cubic,-1.415,1.401,1.000,13.548,0.000,4.076,4.076,4.076,90.0,90.0,90.0,-1.230
ReHgO3,Re,Hg,FALSE,not balanced,not balanced,0.57,1.11,cubic,1.029,2.550,0.918,14.271,0.000,4.148,4.148,4.148,90.0,90.0,90.0,-12.370
ReHoO3,Re,Ho,FALSE,not balanced,not balanced,0.57,0.90,cubic,-0.716,2.022,0.797,15.354,0.000,4.250,4.250,4.250,90.0,90.0,90.0,-8.228
ReInO3,Re,In,FALSE,not balanced,not balanced,0.57,0.80,cubic,0.138,1.828,0.816,13.704,0.000,4.092,4.092,4.092,90.0,90.0,90.0,-7.296
ReIrO3,Re,Ir,FALSE,not balanced,not balanced,0.57,0.63,cubic,0.441,1.962,0.783,12.174,0.000,3.934,3.934,3.934,90.0,90.0,90.0,-4.745
ReKO3,Re,K,FALSE,5,1,0.58,1.38,rhombohedral,-1.718,0.210,0.000,18.357,1.623,6.323,6.323,6.323,61.2,61.2,61.2,-10.916
ReLaO3,Re,La,FALSE,not balanced,not balanced,0.57,1.03,cubic,-0.425,2.307,0.794,17.678,0.000,4.455,4.455,4.455,90.0,90.0,90.0,-9.884
ReLiO3,Re,Li,FALSE,5,1,0.58,0.76,orthorhombic,-1.694,0.294,0.000,9.395,0.000,4.789,5.019,7.817,90.0,90.0,90.0,-6.902
ReLuO3,Re,Lu,FALSE,not balanced,not balanced,0.57,0.86,cubic,-0.882,1.868,0.800,14.329,0.000,4.153,4.153,4.153,90.0,90.0,90.0,-7.068
ReMgO3,Re,Mg,FALSE,not balanced,not balanced,0.57,0.72,cubic,-0.505,1.698,0.567,10.241,0.000,3.713,3.713,3.713,90.0,90.0,90.0,-6.089
ReMnO3,Re,Mn,FALSE,not balanced,not balanced,0.57,0.62,cubic,-0.362,1.478,1.598,11.052,0.000,3.809,3.809,3.809,90.0,90.0,90.0,-4.334
ReMoO3,Re,Mo,FALSE,not balanced,not balanced,0.57,0.62,cubic,-0.446,1.359,0.957,12.312,0.000,3.948,3.948,3.948,90.0,90.0,90.0,-0.751
ReNaO3,Re,Na,FALSE,5,1,0.58,1.02,rhombohedral,-1.642,0.297,0.000,14.518,0.856,5.930,5.930,5.930,59.3,59.3,59.3,-15.373
ReNbO3,Re,Nb,FALSE,5,1,0.58,0.72,cubic,-0.881,1.358,0.960,13.058,0.000,4.027,4.027,4.027,90.0,90.0,90.0,1.303
ReNdO3,Re,Nd,FALSE,not balanced,not balanced,0.57,0.98,cubic,-0.384,2.204,0.801,17.328,0.000,4.425,4.425,4.425,90.0,90.0,90.0,-9.992
ReNiO3,Re,Ni,FALSE,5,1,0.58,0.69,cubic,0.087,1.608,0.972,10.010,0.000,3.685,3.685,3.685,90.0,90.0,90.0,-4.162
ReNpO3,Re,Np,FALSE,element not in BV,element not in BV,0.57,0.86,cubic,-0.901,1.837,1.586,16.583,0.000,4.361,4.361,4.361,90.0,90.0,90.0,0.630
ReOsO3,Re,Os,FALSE,element not in BV,element not in BV,0.57,0.57,cubic,0.262,1.783,0.706,11.977,0.000,3.912,3.912,3.912,90.0,90.0,90.0,-3.744
RePaO3,Re,Pa,FALSE,element not in BV,element not in BV,0.57,0.91,cubic,-1.082,1.290,1.184,17.011,0.000,4.398,4.398,4.398,90.0,90.0,90.0,3.658
RePbO3,Re,Pb,FALSE,not balanced,not balanced,0.57,0.99,rhombohedral,-1.223,0.333,0.200,15.885,0.000,5.768,5.768,5.768,68.1,68.1,68.1,-9.108
RePdO3,Re,Pd,FALSE,not balanced,not balanced,0.57,0.75,cubic,0.563,2.084,0.832,12.141,0.000,3.930,3.930,3.930,90.0,90.0,90.0,-3.925
RePmO3,Re,Pm,FALSE,element not in BV,element not in BV,0.57,0.97,cubic,-0.434,2.173,0.942,16.928,0.000,4.391,4.391,4.391,90.0,90.0,90.0,-9.841
RePrO3,Re,Pr,FALSE,not balanced,not balanced,0.57,0.92,cubic,-0.332,2.269,0.796,17.703,0.000,4.457,4.457,4.457,90.0,90.0,90.0,-10.185
RePtO3,Re,Pt,FALSE,element not in BV,element not in BV,0.57,0.67,cubic,0.629,2.150,0.879,12.620,0.000,3.981,3.981,3.981,90.0,90.0,90.0,-5.687
RePuO3,Re,Pu,FALSE,element not in BV,element not in BV,0.57,0.83,cubic,-0.930,1.655,1.795,16.395,0.000,4.344,4.344,4.344,90.0,90.0,90.0,-5.018
ReRbO3,Re,Rb,FALSE,5,1,0.58,1.52,rhombohedral,-1.739,0.183,0.000,20.938,1.753,6.531,6.531,6.531,62.8,62.8,62.8,-
Re2O3,Re,Re,FALSE,not balanced,not balanced,0.57,0.57,cubic,-0.080,1.457,0.922,12.143,0.000,3.930,3.930,3.930,90.0,90.0,90.0,-2.688
ReRhO3,Re,Rh,FALSE,5,1,0.58,0.67,cubic,0.351,1.872,0.727,11.925,0.000,3.907,3.907,3.907,90.0,90.0,90.0,-
ReRuO3,Re,Ru,FALSE,not balanced,not balanced,0.57,0.62,cubic,0.170,1.691,0.610,11.895,0.000,3.903,3.903,3.903,90.0,90.0,90.0,-3.005
ReSbO3,Re,Sb,FALSE,not balanced,not balanced,0.57,0.68,cubic,-0.026,1.539,1.054,13.731,0.000,4.095,4.095,4.095,90.0,90.0,90.0,-1.994
ReScO3,Re,Sc,FALSE,not balanced,not balanced,0.57,0.75,cubic,-1.013,1.659,0.799,12.644,0.000,3.984,3.984,3.984,90.0,90.0,90.0,-5.351
ReSiO3,Re,Si,FALSE,not balanced,not balanced,0.57,0.40,cubic,-0.803,1.554,0.979,9.603,0.000,3.635,3.635,3.635,90.0,90.0,90.0,3.363
ReSmO3,Re,Sm,FALSE,not balanced,not balanced,0.57,0.96,cubic,-0.476,2.211,0.801,16.662,0.000,4.367,4.367,4.367,90.0,90.0,90.0,-9.590
ReSnO3,Re,Sn,FALSE,not balanced,not balanced,0.57,0.69,cubic,-0.241,1.443,1.000,13.171,0.000,4.038,4.038,4.038,90.0,90.0,90.0,1.359
ReSrO3,Re,Sr,FALSE,not balanced,not balanced,0.57,1.18,rhombohedral,-2.039,0.312,0.200,16.110,0.000,5.959,5.959,5.959,63.5,63.5,63.5,-16.040
ReTaO3,Re,Ta,FALSE,not balanced,not balanced,0.57,0.68,cubic,-1.059,1.388,0.947,12.819,0.000,4.002,4.002,4.002,90.0,90.0,90.0,1.980
ReTbO3,Re,Tb,FALSE,not balanced,not balanced,0.57,0.84,cubic,-0.497,2.052,0.879,15.843,0.000,4.295,4.295,4.295,90.0,90.0,90.0,-8.784
ReTcO3,Re,Tc,FALSE,element not in BV,element not in BV,0.57,0.60,cubic,-0.107,1.428,0.832,11.893,0.000,3.903,3.903,3.903,90.0,90.0,90.0,-2.294
ReTeO3,Re,Te,FALSE,not balanced,not balanced,0.57,0.77,cubic,0.254,1.775,1.042,14.554,0.000,4.175,4.175,4.175,90.0,90.0,90.0,-2.836
ReThO3,Re,Th,FALSE,not balanced,not balanced,0.57,0.94,cubic,-1.156,1.899,1.011,18.697,0.000,4.538,4.538,4.538,90.0,90.0,90.0,1.268
ReTiO3,Re,Ti,FALSE,not balanced,not balanced,0.57,0.71,cubic,-1.162,1.296,0.994,11.687,0.000,3.880,3.880,3.880,90.0,90.0,90.0,-2.031
ReTlO3,Re,Tl,FALSE,not balanced,not balanced,0.57,1.20,rhombohedral,-1.333,0.266,0.000,18.698,0.000,6.023,6.023,6.023,70.1,70.1,70.1,-11.357
ReTmO3,Re,Tm,FALSE,not balanced,not balanced,0.57,0.96,cubic,-0.811,1.948,0.802,14.850,0.000,4.203,4.203,4.203,90.0,90.0,90.0,-7.599
ReUO3,Re,U,FALSE,not balanced,not balanced,0.57,0.85,cubic,-1.274,1.530,0.928,16.503,0.000,4.354,4.354,4.354,90.0,90.0,90.0,5.320
ReVO3,Re,V,FALSE,not balanced,not balanced,0.57,0.64,cubic,-0.713,1.371,1.199,11.248,0.000,3.831,3.831,3.831,90.0,90.0,90.0,-3.179
ReWO3,Re,W,FALSE,not balanced,not balanced,0.57,0.63,cubic,-0.490,1.467,0.935,12.266,0.000,3.944,3.944,3.944,90.0,90.0,90.0,-0.789
ReYO3,Re,Y,FALSE,not balanced,not balanced,0.57,0.90,cubic,-0.649,2.024,0.799,15.722,0.000,4.284,4.284,4.284,90.0,90.0,90.0,-8.485
ReYbO3,Re,Yb,FALSE,not balanced,not balanced,0.57,0.95,rhombohedral,-2.131,0.297,0.200,13.640,0.000,5.659,5.659,5.659,62.9,62.9,62.9,-13.025
ReZnO3,Re,Zn,FALSE,not balanced,not balanced,0.57,0.74,cubic,0.156,1.841,0.726,10.853,0.000,3.786,3.786,3.786,90.0,90.0,90.0,-7.451
ReZrO3,Re,Zr,FALSE,not balanced,not balanced,0.57,0.72,cubic,-1.227,1.465,1.000,14.093,0.000,4.130,4.130,4.130,90.0,90.0,90.0,-2.419
RhAcO3,Rh,Ac,FALSE,element not in BV,element not in BV,0.61,1.12,orthorhombic,-1.964,0.370,0.000,15.416,0.300,5.788,6.016,8.855,90.0,90.0,90.0,-6.432
RhAgO3,Rh,Ag,FALSE,3,3,0.67,0.75,cubic,0.585,1.314,0.733,12.730,0.000,3.993,3.993,3.993,90.0,90.0,90.0,-6.797
RhAlO3,Rh,Al,FALSE,3,3,0.67,0.54,cubic,-1.320,0.779,0.618,9.753,0.000,3.653,3.653,3.653,90.0,90.0,90.0,-1.360
RhAsO3,Rh,As,FALSE,3,3,0.67,0.58,cubic,-0.341,0.852,0.523,10.905,0.000,3.792,3.792,3.792,90.0,90.0,90.0,0.405
RhAuO3,Rh,Au,FALSE,element not in BV,element not in BV,0.61,0.93,cubic,0.588,1.305,0.672,13.086,0.000,4.030,4.030,4.030,90.0,90.0,90.0,-1.524
RhBO3,Rh,B,FALSE,3,3,0.67,0.27,cubic,-0.449,1.329,0.012,7.636,0.000,3.367,3.367,3.367,90.0,90.0,90.0,-1.124
RhBaO3,Rh,Ba,FALSE,not balanced,not balanced,0.61,1.35,rhombohedral,-1.536,0.296,0.200,18.006,0.000,6.182,6.182,6.182,63.5,63.5,63.5,-11.435
RhBeO3,Rh,Be,FALSE,4,2,0.60,0.45,cubic,-0.776,1.033,0.002,8.012,0.000,3.422,3.422,3.422,90.0,90.0,90.0,-3.700
RhBiO3,Rh,Bi,FALSE,1,5,0.67,0.76,cubic,-0.143,1.096,0.491,14.766,0.000,4.195,4.195,4.195,90.0,90.0,90.0,-3.897
RhCaO3,Rh,Ca,FALSE,not balanced,not balanced,0.61,1.00,orthorhombic,-1.616,0.326,0.011,13.044,0.000,5.574,5.582,8.384,90.0,90.0,90.0,-9.227
RhCdO3,Rh,Cd,FALSE,not balanced,not balanced,0.61,0.95,cubic,0.419,1.536,0.773,13.701,0.000,4.092,4.092,4.092,90.0,90.0,90.0,-8.319
RhCeO3,Rh,Ce,FALSE,3,3,0.67,1.01,orthorhombic,-1.895,0.393,0.000,14.211,0.480,5.604,5.941,8.537,90.0,90.0,90.0,-6.947
RhCoO3,Rh,Co,FALSE,3,3,0.67,0.61,cubic,-0.195,0.957,1.061,9.984,0.000,3.682,3.682,3.682,90.0,90.0,90.0,-0.711
RhCrO3,Rh,Cr,FALSE,3,3,0.67,0.62,cubic,-0.803,0.905,0.867,10.584,0.000,3.754,3.754,3.754,90.0,90.0,90.0,-1.031
RhCsO3,Rh,Cs,FALSE,not balanced,not balanced,0.61,1.67,orthorhombic,-1.004,0.156,0.000,19.351,0.000,5.133,6.465,11.662,90.0,90.0,90.0,-
RhCuO3,Rh,Cu,FALSE,3,3,0.67,0.54,cubic,0.102,1.047,0.809,10.267,0.000,3.717,3.717,3.717,90.0,90.0,90.0,-4.112
RhDyO3,Rh,Dy,FALSE,3,3,0.67,0.91,cubic,-1.030,1.362,0.801,15.805,0.000,4.291,4.291,4.291,90.0,90.0,90.0,-5.792
RhErO3,Rh,Er,FALSE,3,3,0.67,0.89,cubic,-1.097,1.319,0.806,15.362,0.000,4.251,4.251,4.251,90.0,90.0,90.0,-5.458
RhEuO3,Rh,Eu,FALSE,3,3,0.67,0.95,orthorhombic,-1.726,0.383,0.001,13.343,0.000,5.699,5.881,7.961,90.0,90.0,90.0,-9.624
RhFeO3,Rh,Fe,FALSE,3,3,0.67,0.65,cubic,-0.448,0.844,1.522,10.772,0.000,3.776,3.776,3.776,90.0,90.0,90.0,-2.494
RhGaO3,Rh,Ga,FALSE,3,3,0.67,0.62,cubic,-0.567,0.951,0.802,11.032,0.000,3.807,3.807,3.807,90.0,90.0,90.0,-2.905
RhGdO3,Rh,Gd,FALSE,3,3,0.67,0.94,cubic,-0.957,1.451,0.816,16.285,0.000,4.334,4.334,4.334,90.0,90.0,90.0,-6.120
RhGeO3,Rh,Ge,FALSE,not balanced,not balanced,0.61,0.63,cubic,-0.686,0.758,0.597,10.376,0.000,3.730,3.730,3.730,90.0,90.0,90.0,1.023
RhHfO3,Rh,Hf,FALSE,3,3,0.67,0.71,cubic,-1.790,0.825,0.599,13.338,0.000,4.055,4.055,4.055,90.0,90.0,90.0,0.072
RhHgO3,Rh,Hg,FALSE,not balanced,not balanced,0.61,1.11,cubic,0.719,1.524,0.676,14.148,0.000,4.136,4.136,4.136,90.0,90.0,90.0,-8.149
RhHoO3,Rh,Ho,FALSE,3,3,0.67,0.90,cubic,-1.065,1.339,0.803,15.578,0.000,4.271,4.271,4.271,90.0,90.0,90.0,-5.625
RhInO3,Rh,In,FALSE,3,3,0.67,0.80,cubic,-0.154,1.235,0.804,13.866,0.000,4.108,4.108,4.108,90.0,90.0,90.0,-5.190
RhIrO3,Rh,Ir,FALSE,1,5,0.67,0.57,cubic,-0.007,0.943,0.506,11.719,0.000,3.884,3.884,3.884,90.0,90.0,90.0,0.624
RhKO3,Rh,K,FALSE,not balanced,not balanced,0.61,1.38,orthorhombic,-0.994,0.227,0.002,16.044,0.000,4.929,6.144,10.596,90.0,90.0,90.0,-7.437
RhLaO3,Rh,La,FALSE,3,3,0.67,1.03,orthorhombic,-2.013,0.373,0.000,14.146,0.397,5.623,5.901,8.525,90.0,90.0,90.0,-6.598
RhLiO3,Rh,Li,FALSE,not balanced,not balanced,0.61,0.76,cubic,0.011,1.315,0.002,8.518,0.000,3.492,3.492,3.492,90.0,90.0,90.0,-6.907
RhLuO3,Rh,Lu,FALSE,3,3,0.67,0.86,cubic,-1.197,1.251,0.800,14.691,0.000,4.188,4.188,4.188,90.0,90.0,90.0,-4.931
RhMgO3,Rh,Mg,FALSE,not balanced,not balanced,0.61,0.72,cubic,-0.519,1.282,0.001,10.460,0.000,3.740,3.740,3.740,90.0,90.0,90.0,-6.273
RhMnO3,Rh,Mn,FALSE,3,3,0.67,0.65,cubic,-0.637,0.851,1.333,10.656,0.000,3.763,3.763,3.763,90.0,90.0,90.0,-1.999
RhMoO3,Rh,Mo,FALSE,3,3,0.67,0.69,cubic,-1.034,0.697,0.396,11.844,0.000,3.898,3.898,3.898,90.0,90.0,90.0,3.479
RhNaO3,Rh,Na,FALSE,not balanced,not balanced,0.61,1.02,rhombohedral,-0.917,0.316,0.400,13.693,0.246,5.797,5.797,5.797,59.7,59.7,59.7,-10.470
RhNbO3,Rh,Nb,FALSE,1,5,0.67,0.64,cubic,-1.463,0.675,0.400,12.642,0.000,3.983,3.983,3.983,90.0,90.0,90.0,2.003
RhNdO3,Rh,Nd,FALSE,3,3,0.67,0.98,orthorhombic,-1.950,0.386,0.000,13.655,0.355,5.487,5.883,8.460,90.0,90.0,90.0,-6.698
RhNiO3,Rh,Ni,FALSE,3,3,0.67,0.60,cubic,-0.036,1.083,1.007,10.050,0.000,3.690,3.690,3.690,90.0,90.0,90.0,-3.845
RhNpO3,Rh,Np,FALSE,element not in BV,element not in BV,0.61,0.86,cubic,-1.449,1.089,0.765,15.091,0.000,4.226,4.226,4.226,90.0,90.0,90.0,0.344
RhOsO3,Rh,Os,FALSE,element not in BV,element not in BV,0.61,0.57,cubic,-0.290,0.718,0.330,11.540,0.000,3.864,3.864,3.864,90.0,90.0,90.0,2.063
RhPaO3,Rh,Pa,FALSE,element not in BV,element not in BV,0.61,0.91,cubic,-1.623,0.548,0.400,16.430,0.000,4.347,4.347,4.347,90.0,90.0,90.0,1.861
RhPbO3,Rh,Pb,FALSE,not balanced,not balanced,0.61,0.99,orthorhombic,-0.774,0.377,0.000,13.606,0.000,5.682,5.766,8.306,90.0,90.0,90.0,-4.748
RhPdO3,Rh,Pd,FALSE,3,3,0.67,0.76,cubic,0.257,1.139,0.765,12.081,0.000,3.924,3.924,3.924,90.0,90.0,90.0,-2.470
RhPmO3,Rh,Pm,FALSE,element not in BV,element not in BV,0.61,0.97,orthorhombic,-1.979,0.382,0.000,13.388,0.366,5.442,5.853,8.406,90.0,90.0,90.0,-6.557
RhPrO3,Rh,Pr,FALSE,3,3,0.67,0.99,orthorhombic,-1.925,0.390,-0.001,13.917,0.344,5.542,5.911,8.498,90.0,90.0,90.0,-6.823
RhPtO3,Rh,Pt,FALSE,element not in BV,element not in BV,0.61,0.67,cubic,0.257,1.116,0.720,12.314,0.000,3.949,3.949,3.949,90.0,90.0,90.0,-0.825
RhPuO3,Rh,Pu,FALSE,element not in BV,element not in BV,0.61,0.83,cubic,-1.233,1.051,1.051,15.818,0.000,4.292,4.292,4.292,90.0,90.0,90.0,-2.620
RhRbO3,Rh,Rb,FALSE,not balanced,not balanced,0.61,1.52,orthorhombic,-0.999,0.185,-0.001,17.661,0.000,5.056,6.279,11.126,90.0,90.0,90.0,-14.293
RhReO3,Rh,Re,FALSE,3,3,0.67,0.63,cubic,-0.703,0.817,0.370,11.608,0.000,3.872,3.872,3.872,90.0,90.0,90.0,3.064
Rh2O3,Rh,Rh,FALSE,3,3,0.67,0.67,cubic,-0.004,0.930,0.762,11.681,0.000,3.880,3.880,3.880,90.0,90.0,90.0,0.096
RhRuO3,Rh,Ru,FALSE,3,3,0.67,0.68,cubic,-0.271,0.801,0.312,11.438,0.000,3.853,3.853,3.853,90.0,90.0,90.0,1.431
RhSbO3,Rh,Sb,FALSE,1,5,0.67,0.60,cubic,-0.553,0.750,0.449,12.630,0.000,3.982,3.982,3.982,90.0,90.0,90.0,1.186
RhScO3,Rh,Sc,FALSE,3,3,0.67,0.75,cubic,-1.273,1.098,0.800,12.974,0.000,4.018,4.018,4.018,90.0,90.0,90.0,-
RhSiO3,Rh,Si,FALSE,not balanced,not balanced,0.61,0.40,cubic,-1.323,0.833,0.598,9.094,0.000,3.569,3.569,3.569,90.0,90.0,90.0,2.501
RhSmO3,Rh,Sm,FALSE,3,3,0.67,0.96,cubic,-0.862,1.509,0.808,16.907,0.000,4.389,4.389,4.389,90.0,90.0,90.0,-6.450
RhSnO3,Rh,Sn,FALSE,not balanced,not balanced,0.61,0.69,cubic,-0.612,0.872,0.600,12.916,0.000,4.012,4.012,4.012,90.0,90.0,90.0,-0.889