Chemical formula,A,B,In literature,Valence A,Valence B,Radius A [ang],Radius B [ang],Lowest distortion,Formation energy [eV/atom],Stability [eV/atom],Magnetic moment [mu_B],Volume per atom [A^3/atom],Band gap [eV],a [ang],b [ang],c [ang],alpha [deg],beta [deg],gamma [deg],Vacancy energy [eV/O atom]
SmAlO3,Sm,Al,TRUE,3,3,1.24,0.54,orthorhombic,-3.537,-0.054,0.000,10.494,4.871,5.288,5.305,7.481,90.0,90.0,90.0,6.413
SmAsO3,Sm,As,FALSE,3,3,1.24,0.58,cubic,-2.008,0.639,0.000,12.948,0.000,4.015,4.015,4.015,90.0,90.0,90.0,2.469
SmAuO3,Sm,Au,FALSE,element not in BV,element not in BV,1.24,0.93,cubic,-1.405,0.631,0.000,13.883,0.000,4.110,4.110,4.110,90.0,90.0,90.0,-0.273
SmBO3,Sm,B,FALSE,not balanced,not balanced,1.24,0.27,cubic,-2.474,0.849,0.000,8.649,2.677,3.510,3.510,3.510,90.0,90.0,90.0,5.211
SmBaO3,Sm,Ba,FALSE,not balanced,not balanced,1.24,1.35,orthorhombic,-2.733,0.296,0.112,19.204,0.000,6.032,6.058,10.510,90.0,90.0,90.0,-5.106
SmBeO3,Sm,Be,FALSE,not balanced,not balanced,1.24,0.45,tetragonal,-2.755,0.282,0.043,9.860,0.000,3.390,3.390,4.289,90.0,90.0,90.0,-0.590
SmBiO3,Sm,Bi,FALSE,not balanced,not balanced,1.24,0.90,cubic,-1.648,0.940,0.000,16.659,0.000,4.367,4.367,4.367,90.0,90.0,90.0,1.195
SmCaO3,Sm,Ca,FALSE,not balanced,not balanced,1.24,1.00,cubic,-2.270,0.872,0.200,14.230,0.000,4.144,4.144,4.144,90.0,90.0,90.0,-2.299
SmCdO3,Sm,Cd,FALSE,not balanced,not balanced,1.24,0.95,cubic,-1.709,0.636,0.000,13.863,0.000,4.108,4.108,4.108,90.0,90.0,90.0,-0.615
SmCeO3,Sm,Ce,FALSE,2,4,1.32,0.87,cubic,-2.444,1.167,0.000,18.747,0.779,4.543,4.543,4.543,90.0,90.0,90.0,-1.929
SmCoO3,Sm,Co,TRUE,3,3,1.24,0.61,orthorhombic,-2.487,-0.009,0.400,11.162,0.000,5.289,5.546,7.610,90.0,90.0,90.0,2.931
SmCrO3,Sm,Cr,TRUE,3,3,1.24,0.62,orthorhombic,-3.151,-0.060,0.600,11.543,2.441,5.364,5.595,7.691,90.0,90.0,90.0,4.538
SmCsO3,Sm,Cs,FALSE,not balanced,not balanced,1.24,1.67,tetragonal,-1.808,0.607,0.006,17.472,0.000,3.385,3.385,7.623,90.0,90.0,90.0,-
SmCuO3,Sm,Cu,FALSE,3,3,1.24,0.54,orthorhombic,-2.218,0.047,0.000,11.236,0.000,5.277,5.749,7.409,90.0,90.0,90.0,1.081
SmDyO3,Sm,Dy,FALSE,not balanced,not balanced,1.24,0.99,cubic,-3.027,0.749,0.000,15.621,1.796,4.275,4.275,4.275,90.0,90.0,90.0,4.233
SmErO3,Sm,Er,FALSE,not balanced,not balanced,1.24,0.89,cubic,-3.123,0.676,0.000,15.136,2.014,4.230,4.230,4.230,90.0,90.0,90.0,4.502
SmEuO3,Sm,Eu,FALSE,not balanced,not balanced,1.24,1.06,cubic,-2.260,0.949,0.117,15.547,0.000,4.268,4.268,4.268,90.0,90.0,90.0,-1.703
SmFeO3,Sm,Fe,TRUE,3,3,1.24,0.65,orthorhombic,-2.734,-0.030,1.000,11.700,1.151,5.383,5.638,7.710,90.0,90.0,90.0,3.624
SmGaO3,Sm,Ga,FALSE,3,3,1.24,0.62,orthorhombic,-2.921,0.006,0.000,11.496,4.124,5.362,5.586,7.676,90.0,90.0,90.0,4.735
SmGdO3,Sm,Gd,FALSE,not balanced,not balanced,1.24,0.94,cubic,-2.915,0.832,0.000,16.192,1.508,4.326,4.326,4.326,90.0,90.0,90.0,1.260
SmGeO3,Sm,Ge,FALSE,2,4,1.32,0.53,orthorhombic,-2.531,0.170,0.000,12.471,0.000,5.442,5.821,7.874,90.0,90.0,90.0,3.064
SmHfO3,Sm,Hf,FALSE,2,4,1.32,0.71,orthorhombic,-3.408,0.171,0.005,12.980,0.000,5.550,6.089,7.682,90.0,90.0,90.0,4.839
SmHgO3,Sm,Hg,FALSE,not balanced,not balanced,1.24,1.11,cubic,-1.299,0.733,-0.001,14.826,0.000,4.201,4.201,4.201,90.0,90.0,90.0,-0.584
SmHoO3,Sm,Ho,FALSE,not balanced,not balanced,1.24,0.90,cubic,-3.077,0.711,0.000,15.373,1.810,4.252,4.252,4.252,90.0,90.0,90.0,4.384
SmInO3,Sm,In,TRUE,not balanced,not balanced,1.24,0.80,cubic,-2.231,0.541,0.000,13.327,1.604,4.054,4.054,4.054,90.0,90.0,90.0,3.031
SmIrO3,Sm,Ir,FALSE,2,4,1.32,0.63,cubic,-1.741,0.589,0.000,12.509,0.000,3.969,3.969,3.969,90.0,90.0,90.0,-0.334
SmKO3,Sm,K,FALSE,not balanced,not balanced,1.24,1.38,orthorhombic,-2.137,0.291,0.000,17.217,1.596,6.325,6.401,8.505,90.0,90.0,90.0,-3.394
SmLaO3,Sm,La,FALSE,not balanced,not balanced,1.24,1.03,cubic,-2.566,1.141,0.000,18.469,0.557,4.520,4.520,4.520,90.0,90.0,90.0,2.170
SmLiO3,Sm,Li,FALSE,not balanced,not balanced,1.24,0.76,orthorhombic,-2.240,0.292,0.400,10.880,0.000,5.051,5.823,7.399,90.0,90.0,90.0,-0.931
SmLuO3,Sm,Lu,FALSE,not balanced,not balanced,1.24,0.86,cubic,-3.260,0.572,0.000,14.456,1.986,4.166,4.166,4.166,90.0,90.0,90.0,4.842
SmMgO3,Sm,Mg,FALSE,not balanced,not balanced,1.24,0.72,orthorhombic,-2.881,0.157,0.200,11.798,0.000,5.346,5.748,7.678,90.0,90.0,90.0,-0.964
SmMnO3,Sm,Mn,TRUE,2,4,1.32,0.53,orthorhombic,-2.913,0.001,0.800,11.743,0.000,5.376,5.749,7.599,90.0,90.0,90.0,3.730
SmMoO3,Sm,Mo,FALSE,2,4,1.32,0.65,orthorhombic,-2.637,0.204,0.591,12.690,0.000,5.470,5.883,7.887,90.0,90.0,90.0,2.336
SmNaO3,Sm,Na,FALSE,not balanced,not balanced,1.24,1.02,cubic,-1.535,0.896,0.400,12.374,0.000,3.955,3.955,3.955,90.0,90.0,90.0,-2.280
SmNbO3,Sm,Nb,FALSE,2,4,1.32,0.68,orthorhombic,-2.950,0.207,0.001,12.738,0.000,5.473,5.996,7.763,90.0,90.0,90.0,3.647
SmNdO3,Sm,Nd,FALSE,not balanced,not balanced,1.24,0.98,cubic,-2.622,1.038,0.000,17.747,0.993,4.460,4.460,4.460,90.0,90.0,90.0,-
SmNiO3,Sm,Ni,TRUE,3,3,1.24,0.60,orthorhombic,-2.356,-0.009,0.200,10.909,0.000,5.280,5.477,7.544,90.0,90.0,90.0,1.310
SmNpO3,Sm,Np,FALSE,element not in BV,element not in BV,1.24,0.86,cubic,-2.694,0.897,0.791,17.250,0.000,4.418,4.418,4.418,90.0,90.0,90.0,3.320
SmOsO3,Sm,Os,FALSE,element not in BV,element not in BV,1.24,0.57,cubic,-1.788,0.618,0.003,12.354,0.000,3.953,3.953,3.953,90.0,90.0,90.0,0.674
SmPaO3,Sm,Pa,FALSE,element not in BV,element not in BV,1.24,0.91,cubic,-2.480,0.765,0.308,17.873,0.000,4.471,4.471,4.471,90.0,90.0,90.0,3.036
SmPbO3,Sm,Pb,FALSE,2,4,1.32,0.78,cubic,-1.583,0.884,0.000,14.924,0.000,4.210,4.210,4.210,90.0,90.0,90.0,-
SmPdO3,Sm,Pd,FALSE,2,4,1.32,0.62,orthorhombic,-2.166,-0.056,0.002,12.389,0.000,5.466,5.931,7.642,90.0,90.0,90.0,0.347
SmPmO3,Sm,Pm,FALSE,element not in BV,element not in BV,1.24,0.97,cubic,-2.711,0.978,0.000,17.265,1.193,4.420,4.420,4.420,90.0,90.0,90.0,3.170
SmPrO3,Sm,Pr,FALSE,2,4,1.32,0.85,cubic,-2.540,1.099,0.000,18.210,0.993,4.499,4.499,4.499,90.0,90.0,90.0,2.566
SmPtO3,Sm,Pt,FALSE,element not in BV,element not in BV,1.24,0.67,cubic,-1.659,0.539,0.000,13.082,0.000,4.029,4.029,4.029,90.0,90.0,90.0,-0.082
SmPuO3,Sm,Pu,FALSE,element not in BV,element not in BV,1.24,0.83,cubic,-2.735,0.932,0.928,16.641,0.000,4.366,4.366,4.366,90.0,90.0,90.0,2.548
SmRbO3,Sm,Rb,FALSE,not balanced,not balanced,1.24,1.52,orthorhombic,-1.951,0.469,0.400,20.346,0.000,6.107,6.170,10.798,90.0,90.0,90.0,-3.016
SmReO3,Sm,Re,FALSE,2,4,1.32,0.63,cubic,-2.001,0.686,0.165,12.430,0.000,3.961,3.961,3.961,90.0,90.0,90.0,0.946
SmRhO3,Sm,Rh,TRUE,2,4,1.32,0.60,orthorhombic,-2.370,-0.053,0.000,11.987,0.783,5.337,5.818,7.720,90.0,90.0,90.0,0.380
SmRuO3,Sm,Ru,FALSE,2,4,1.32,0.62,orthorhombic,-2.371,0.049,0.199,11.958,0.000,5.295,5.864,7.702,90.0,90.0,90.0,1.228
SmSbO3,Sm,Sb,FALSE,3,3,1.24,0.76,cubic,-1.855,0.860,0.000,15.066,0.000,4.223,4.223,4.223,90.0,90.0,90.0,1.586
SmScO3,Sm,Sc,TRUE,not balanced,not balanced,1.24,0.75,orthorhombic,-3.760,-0.006,0.000,12.664,4.491,5.511,5.778,7.954,90.0,90.0,90.0,5.249
SmSiO3,Sm,Si,FALSE,3,3,1.24,0.40,cubic,-2.675,0.558,0.000,10.394,0.000,3.732,3.732,3.732,90.0,90.0,90.0,4.676
Sm2O3,Sm,Sm,FALSE,not balanced,not balanced,1.24,0.96,cubic,-2.766,0.935,0.000,16.964,1.391,4.394,4.394,4.394,90.0,90.0,90.0,0.920
SmSnO3,Sm,Sn,FALSE,2,4,1.32,0.69,cubic,-2.114,0.694,0.000,14.015,0.000,4.123,4.123,4.123,90.0,90.0,90.0,2.518
SmSrO3,Sm,Sr,FALSE,not balanced,not balanced,1.24,1.18,orthorhombic,-2.830,0.257,0.110,17.107,0.000,5.949,5.959,9.652,90.0,90.0,90.0,-2.965
SmTaO3,Sm,Ta,FALSE,2,4,1.32,0.68,cubic,-2.778,0.505,0.002,12.941,0.000,4.015,4.015,4.015,90.0,90.0,90.0,3.702
SmTbO3,Sm,Tb,FALSE,2,4,1.32,0.76,cubic,-2.842,0.789,0.000,15.898,1.608,4.300,4.300,4.300,90.0,90.0,90.0,2.172
SmTcO3,Sm,Tc,FALSE,element not in BV,element not in BV,1.24,0.60,orthorhombic,-2.497,0.118,0.389,12.160,0.000,5.340,5.902,7.716,90.0,90.0,90.0,1.831
SmTeO3,Sm,Te,FALSE,2,4,1.32,0.97,cubic,-1.542,0.955,0.000,15.305,0.000,4.246,4.246,4.246,90.0,90.0,90.0,1.216
SmThO3,Sm,Th,FALSE,2,4,1.32,0.94,cubic,-2.877,0.899,0.084,18.905,0.000,4.555,4.555,4.555,90.0,90.0,90.0,2.673
SmTiO3,Sm,Ti,TRUE,2,4,1.32,0.61,orthorhombic,-3.421,-0.009,0.200,11.906,0.000,5.398,5.700,7.738,90.0,90.0,90.0,5.050
SmTlO3,Sm,Tl,FALSE,not balanced,not balanced,1.24,1.20,orthorhombic,-2.247,0.072,0.000,14.526,1.257,5.684,6.043,8.458,90.0,90.0,90.0,0.884
SmTmO3,Sm,Tm,FALSE,not balanced,not balanced,1.24,0.96,cubic,-3.181,0.635,0.000,14.864,1.999,4.204,4.204,4.204,90.0,90.0,90.0,4.650
SmUO3,Sm,U,FALSE,2,4,1.32,0.89,cubic,-2.301,1.269,0.581,22.751,0.000,4.845,4.845,4.845,90.0,90.0,90.0,-1.117
SmVO3,Sm,V,TRUE,2,4,1.32,0.58,orthorhombic,-3.223,-0.057,0.400,11.864,1.105,5.398,5.695,7.718,90.0,90.0,90.0,4.238
SmWO3,Sm,W,FALSE,2,4,1.32,0.66,cubic,-2.296,0.534,0.003,12.562,0.000,3.975,3.975,3.975,90.0,90.0,90.0,1.933
SmYO3,Sm,Y,FALSE,not balanced,not balanced,1.24,0.90,cubic,-3.003,0.752,0.000,15.620,1.744,4.275,4.275,4.275,90.0,90.0,90.0,2.084
SmYbO3,Sm,Yb,FALSE,not balanced,not balanced,1.24,0.95,cubic,-2.500,0.754,-0.158,13.968,0.000,4.118,4.118,4.118,90.0,90.0,90.0,-1.411
SmZnO3,Sm,Zn,FALSE,not balanced,not balanced,1.24,0.74,orthorhombic,-2.402,0.108,0.000,11.701,0.000,5.327,5.784,7.595,90.0,90.0,90.0,0.146
SmZrO3,Sm,Zr,FALSE,2,4,1.32,0.72,orthorhombic,-3.353,0.157,0.051,13.292,0.000,5.599,6.132,7.743,90.0,90.0,90.0,4.476
SnAcO3,Sn,Ac,FALSE,element not in BV,element not in BV,0.81,1.12,cubic,-1.676,1.007,0.061,19.752,0.000,4.622,4.622,4.622,90.0,90.0,90.0,-3.151
SnAgO3,Sn,Ag,FALSE,3,3,0.81,0.75,cubic,-0.343,0.935,-,13.233,0.000,4.045,4.045,4.045,90.0,90.0,90.0,-2.457
SnAlO3,Sn,Al,FALSE,3,3,0.81,0.54,orthorhombic,-2.269,0.257,-,10.344,0.000,5.201,5.364,7.416,90.0,90.0,90.0,1.659
SnAsO3,Sn,As,FALSE,3,3,0.81,0.58,tetragonal,-1.321,0.333,-,13.489,0.000,3.867,3.867,4.510,90.0,90.0,90.0,1.871
SnAuO3,Sn,Au,FALSE,element not in BV,element not in BV,0.81,0.93,cubic,-0.361,0.905,-,13.691,0.000,4.091,4.091,4.091,90.0,90.0,90.0,-0.385
SnBO3,Sn,B,FALSE,4,2,0.81,0.27,cubic,-1.092,1.125,-,8.323,0.000,3.465,3.465,3.465,90.0,90.0,90.0,1.685
SnBaO3,Sn,Ba,FALSE,not balanced,not balanced,0.81,1.35,orthorhombic,-2.182,0.260,-,18.505,1.594,5.752,5.877,10.949,90.0,90.0,90.0,-6.743
SnBeO3,Sn,Be,FALSE,4,2,0.81,0.45,cubic,-1.421,0.937,-,8.651,0.000,3.510,3.510,3.510,90.0,90.0,90.0,-2.775
SnBiO3,Sn,Bi,FALSE,3,3,0.81,1.03,cubic,-1.046,0.640,-,16.076,0.000,4.316,4.316,4.316,90.0,90.0,90.0,1.066
SnCaO3,Sn,Ca,FALSE,not balanced,not balanced,0.81,1.00,orthorhombic,-2.297,0.249,-,14.104,0.878,5.618,5.631,8.916,90.0,90.0,90.0,-
SnCdO3,Sn,Cd,FALSE,not balanced,not balanced,0.81,0.95,cubic,-0.502,1.203,-,14.052,0.000,4.126,4.126,4.126,90.0,90.0,90.0,-4.446
SnCeO3,Sn,Ce,FALSE,2,4,0.81,0.87,cubic,-1.640,1.013,-0.200,18.499,0.000,4.522,4.522,4.522,90.0,90.0,90.0,-3.618
SnCoO3,Sn,Co,FALSE,2,4,0.81,0.53,cubic,-1.019,0.651,0.034,10.361,0.000,3.728,3.728,3.728,90.0,90.0,90.0,-
SnCrO3,Sn,Cr,FALSE,2,4,0.81,0.55,orthorhombic,-1.939,0.195,0.623,11.276,0.000,5.295,5.543,7.684,90.0,90.0,90.0,1.680
SnCsO3,Sn,Cs,FALSE,not balanced,not balanced,0.81,1.67,orthorhombic,-1.362,0.324,-,20.745,0.220,5.965,6.918,10.053,90.0,90.0,90.0,-1.696
SnCuO3,Sn,Cu,FALSE,3,3,0.81,0.54,cubic,-0.744,0.751,-,10.708,0.000,3.769,3.769,3.769,90.0,90.0,90.0,-2.239
SnDyO3,Sn,Dy,FALSE,3,3,0.81,0.91,cubic,-1.960,0.893,-0.201,16.116,0.000,4.319,4.319,4.319,90.0,90.0,90.0,-2.247
SnErO3,Sn,Er,FALSE,3,3,0.81,0.89,cubic,-2.012,0.851,-0.198,15.719,0.000,4.283,4.283,4.283,90.0,90.0,90.0,-1.922
SnEuO3,Sn,Eu,FALSE,3,3,0.81,0.95,orthorhombic,-2.389,0.312,0.000,14.788,0.880,5.707,5.783,8.961,90.0,90.0,90.0,-5.394
SnFeO3,Sn,Fe,FALSE,2,4,0.81,0.59,rhombohedral,-1.496,0.284,0.846,11.389,0.000,5.396,5.396,5.396,61.1,61.1,61.1,0.792
SnGaO3,Sn,Ga,FALSE,3,3,0.81,0.62,cubic,-1.374,0.570,-,11.282,0.000,3.835,3.835,3.835,90.0,90.0,90.0,0.236
SnGdO3,Sn,Gd,FALSE,3,3,0.81,0.94,cubic,-1.899,0.940,-0.195,16.510,0.000,4.354,4.354,4.354,90.0,90.0,90.0,-2.574
SnGeO3,Sn,Ge,FALSE,2,4,0.81,0.53,orthorhombic,-1.495,0.274,-,11.391,0.000,5.399,5.418,7.788,90.0,90.0,90.0,3.690
SnHfO3,Sn,Hf,FALSE,2,4,0.81,0.71,orthorhombic,-2.783,0.135,0.000,13.857,2.398,5.797,5.821,8.214,90.0,90.0,90.0,5.278
SnHgO3,Sn,Hg,FALSE,not balanced,not balanced,0.81,1.11,cubic,-0.251,1.103,-,14.613,0.000,4.181,4.181,4.181,90.0,90.0,90.0,-3.522
SnHoO3,Sn,Ho,FALSE,3,3,0.81,0.90,cubic,-1.972,0.885,-0.008,15.913,0.000,4.301,4.301,4.301,90.0,90.0,90.0,-2.231
SnInO3,Sn,In,FALSE,3,3,0.81,0.80,cubic,-1.037,0.779,-,14.207,0.000,4.142,4.142,4.142,90.0,90.0,90.0,-1.427
SnIrO3,Sn,Ir,FALSE,2,4,0.81,0.63,cubic,-0.815,0.677,0.001,12.553,0.000,3.974,3.974,3.974,90.0,90.0,90.0,1.392
SnKO3,Sn,K,FALSE,not balanced,not balanced,0.81,1.38,orthorhombic,-1.398,0.336,-,17.448,0.000,5.641,6.399,9.666,90.0,90.0,90.0,-9.860
SnLaO3,Sn,La,FALSE,3,3,0.81,1.03,cubic,-1.780,1.044,0.001,18.121,0.000,4.491,4.491,4.491,90.0,90.0,90.0,-3.040
SnLiO3,Sn,Li,FALSE,not balanced,not balanced,0.81,0.76,cubic,-0.725,1.138,-,9.356,0.000,3.603,3.603,3.603,90.0,90.0,90.0,-5.162
SnLuO3,Sn,Lu,FALSE,3,3,0.81,0.86,cubic,-2.093,0.782,-0.199,15.153,0.000,4.231,4.231,4.231,90.0,90.0,90.0,-0.995
SnMgO3,Sn,Mg,FALSE,not balanced,not balanced,0.81,0.72,cubic,-1.324,1.027,-,11.245,0.000,3.831,3.831,3.831,90.0,90.0,90.0,-4.667
SnMnO3,Sn,Mn,FALSE,2,4,0.81,0.53,cubic,-1.495,0.532,0.621,11.371,0.000,3.845,3.845,3.845,90.0,90.0,90.0,0.727
SnMoO3,Sn,Mo,FALSE,2,4,0.81,0.65,orthorhombic,-1.681,0.227,0.003,12.669,0.000,5.584,5.658,8.020,90.0,90.0,90.0,4.320
SnNaO3,Sn,Na,FALSE,not balanced,not balanced,0.81,1.02,orthorhombic,-1.427,0.374,-,13.218,0.000,5.660,5.971,7.823,90.0,90.0,90.0,-8.849
SnNbO3,Sn,Nb,FALSE,2,4,0.81,0.68,tetragonal,-2.110,0.206,0.000,13.523,0.000,4.050,4.086,4.086,90.0,90.0,90.0,4.737
SnNdO3,Sn,Nd,FALSE,3,3,0.81,0.98,cubic,-1.732,1.046,0.000,17.801,0.000,4.465,4.465,4.465,90.0,90.0,90.0,-3.327
SnNiO3,Sn,Ni,FALSE,2,4,0.81,0.48,cubic,-0.885,0.784,0.221,10.506,0.000,3.745,3.745,3.745,90.0,90.0,90.0,-2.268
SnNpO3,Sn,Np,FALSE,element not in BV,element not in BV,0.81,0.86,cubic,-2.186,0.655,0.591,16.918,0.000,4.390,4.390,4.390,90.0,90.0,90.0,1.877
SnOsO3,Sn,Os,FALSE,element not in BV,element not in BV,0.81,0.57,cubic,-0.976,0.545,0.206,12.482,0.000,3.967,3.967,3.967,90.0,90.0,90.0,2.825
SnPaO3,Sn,Pa,FALSE,element not in BV,element not in BV,0.81,0.91,orthorhombic,-2.384,0.090,0.200,16.177,2.036,5.929,6.329,8.621,90.0,90.0,90.0,3.830
SnPbO3,Sn,Pb,FALSE,2,4,0.81,0.78,tetragonal,-1.134,0.579,-,15.282,0.000,3.886,3.886,5.059,90.0,90.0,90.0,1.229
SnPdO3,Sn,Pd,FALSE,2,4,0.81,0.62,cubic,-0.658,0.774,-,12.636,0.000,3.983,3.983,3.983,90.0,90.0,90.0,0.360
SnPmO3,Sn,Pm,FALSE,element not in BV,element not in BV,0.81,0.97,cubic,-1.778,0.953,-0.004,17.465,0.000,4.437,4.437,4.437,90.0,90.0,90.0,-3.172
SnPrO3,Sn,Pr,FALSE,2,4,0.81,0.85,cubic,-1.693,1.066,-0.199,18.050,0.000,4.486,4.486,4.486,90.0,90.0,90.0,-3.434
SnPtO3,Sn,Pt,FALSE,element not in BV,element not in BV,0.81,0.67,cubic,-0.644,0.764,0.002,12.977,0.000,4.018,4.018,4.018,90.0,90.0,90.0,0.447
SnPuO3,Sn,Pu,FALSE,element not in BV,element not in BV,0.81,0.83,orthorhombic,-2.505,0.205,0.800,15.417,0.586,5.843,6.202,8.510,90.0,90.0,90.0,-
SnRbO3,Sn,Rb,FALSE,not balanced,not balanced,0.81,1.52,orthorhombic,-1.372,0.315,-,18.763,0.000,5.698,6.613,9.959,90.0,90.0,90.0,-9.375
SnReO3,Sn,Re,FALSE,2,4,0.81,0.63,orthorhombic,-1.345,0.340,0.000,12.633,0.000,5.520,5.571,8.217,90.0,90.0,90.0,3.771
SnRhO3,Sn,Rh,FALSE,2,4,0.81,0.60,cubic,-0.880,0.604,0.002,12.323,0.000,3.950,3.950,3.950,90.0,90.0,90.0,0.885
SnRuO3,Sn,Ru,FALSE,2,4,0.81,0.62,orthorhombic,-1.225,0.327,0.002,11.647,0.000,5.372,5.536,7.833,90.0,90.0,90.0,2.761
SnSbO3,Sn,Sb,FALSE,3,3,0.81,0.76,tetragonal,-1.382,0.316,-,14.951,0.000,4.135,4.135,4.372,90.0,90.0,90.0,2.386
SnScO3,Sn,Sc,FALSE,3,3,0.81,0.75,cubic,-2.122,0.675,-0.010,13.425,0.000,4.064,4.064,4.064,90.0,90.0,90.0,-0.585
SnSiO3,Sn,Si,FALSE,2,4,0.81,0.40,tetragonal,-2.097,0.362,-,11.247,0.865,3.477,3.477,4.652,90.0,90.0,90.0,5.029
SnSmO3,Sn,Sm,FALSE,3,3,0.81,0.96,cubic,-1.816,0.992,-0.200,17.249,0.000,4.418,4.418,4.418,90.0,90.0,90.0,-2.933
Sn2O3,Sn,Sn,FALSE,not balanced,not balanced,0.81,0.69,orthorhombic,-1.600,0.187,-,13.411,1.158,5.682,5.776,8.173,90.0,90.0,90.0,3.443
SnSrO3,Sn,Sr,FALSE,not balanced,not balanced,0.81,1.18,orthorhombic,-2.223,0.273,-,16.198,1.174,5.743,5.798,9.730,90.0,90.0,90.0,-6.916
SnTaO3,Sn,Ta,FALSE,2,4,0.81,0.68,tetragonal,-2.223,0.308,0.000,13.398,0.000,4.045,4.069,4.069,90.0,90.0,90.0,5.007
SnTbO3,Sn,Tb,FALSE,2,4,0.81,0.76,cubic,-1.800,0.916,-0.196,16.311,0.000,4.337,4.337,4.337,90.0,90.0,90.0,-2.406
SnTcO3,Sn,Tc,FALSE,element not in BV,element not in BV,0.81,0.60,orthorhombic,-1.404,0.278,0.352,12.362,0.000,5.541,5.648,7.900,90.0,90.0,90.0,3.489
SnTeO3,Sn,Te,FALSE,2,4,0.81,0.97,cubic,-1.032,0.530,-,15.193,0.000,4.235,4.235,4.235,90.0,90.0,90.0,2.517
SnThO3,Sn,Th,FALSE,2,4,0.81,0.94,cubic,-2.510,0.647,0.000,19.050,0.645,4.567,4.567,4.567,90.0,90.0,90.0,3.095
SnTiO3,Sn,Ti,FALSE,2,4,0.81,0.61,tetragonal,-2.488,0.078,0.000,12.534,0.744,3.867,3.867,4.192,90.0,90.0,90.0,4.657
SnTlO3,Sn,Tl,FALSE,3,3,0.81,0.89,orthorhombic,-1.169,0.357,-,14.367,0.000,5.694,5.824,8.665,90.0,90.0,90.0,-2.983
SnTmO3,Sn,Tm,FALSE,3,3,0.81,0.88,cubic,-2.049,0.825,-0.198,15.495,0.000,4.263,4.263,4.263,90.0,90.0,90.0,-1.145
SnUO3,Sn,U,FALSE,2,4,0.81,0.89,cubic,-2.396,0.511,0.274,16.719,0.000,4.372,4.372,4.372,90.0,90.0,90.0,3.267
SnVO3,Sn,V,FALSE,2,4,0.81,0.58,orthorhombic,-2.010,0.198,0.351,11.570,0.000,5.411,5.574,7.672,90.0,90.0,90.0,3.118
SnWO3,Sn,W,FALSE,2,4,0.81,0.66,cubic,-1.678,0.279,0.000,12.775,0.000,3.997,3.997,3.997,90.0,90.0,90.0,4.517
SnYO3,Sn,Y,FALSE,3,3,0.81,0.90,cubic,-1.911,0.922,0.000,16.310,0.000,4.336,4.336,4.336,90.0,90.0,90.0,-2.492
SnYbO3,Sn,Yb,FALSE,3,3,0.81,0.87,orthorhombic,-2.424,0.262,-,13.313,0.788,5.620,5.644,8.395,90.0,90.0,90.0,-5.343
SnZnO3,Sn,Zn,FALSE,not balanced,not balanced,0.81,0.74,cubic,-0.854,0.977,-,11.387,0.000,3.847,3.847,3.847,90.0,90.0,90.0,-3.811
SnZrO3,Sn,Zr,FALSE,2,4,0.81,0.72,tetragonal,-2.627,0.167,0.000,14.310,1.659,4.051,4.051,4.359,90.0,90.0,90.0,4.877
SrAcO3,Sr,Ac,FALSE,element not in BV,element not in BV,1.44,1.12,orthorhombic,-2.874,0.152,0.200,18.136,0.000,6.232,6.480,8.981,90.0,90.0,90.0,-0.007
SrAgO3,Sr,Ag,FALSE,not balanced,not balanced,1.44,0.95,orthorhombic,-1.310,0.092,-,13.387,0.000,5.703,5.839,8.040,90.0,90.0,90.0,-0.289
SrAlO3,Sr,Al,FALSE,not balanced,not balanced,1.44,0.54,orthorhombic,-2.870,0.090,-,10.977,0.000,5.374,5.374,7.603,90.0,90.0,90.0,0.641
SrAsO3,Sr,As,FALSE,not balanced,not balanced,1.44,0.52,tetragonal,-2.144,0.210,-,12.670,0.000,3.858,3.858,4.256,90.0,90.0,90.0,2.375
SrAuO3,Sr,Au,FALSE,element not in BV,element not in BV,1.44,0.93,orthorhombic,-1.376,0.192,-,13.581,0.000,5.783,5.937,7.910,90.0,90.0,90.0,0.040
SrBO3,Sr,B,FALSE,not balanced,not balanced,1.44,0.27,cubic,-1.702,1.046,-,9.085,0.000,3.568,3.568,3.568,90.0,90.0,90.0,-1.392
SrBaO3,Sr,Ba,FALSE,not balanced,not balanced,1.44,1.35,cubic,-1.631,0.818,-,19.726,0.000,4.620,4.620,4.620,90.0,90.0,90.0,-1.445
SrBeO3,Sr,Be,FALSE,not balanced,not balanced,1.44,0.45,tetragonal,-2.038,0.444,-,10.793,0.000,3.360,3.360,4.780,90.0,90.0,90.0,-1.601
SrBiO3,Sr,Bi,FALSE,not balanced,not balanced,1.44,0.90,orthorhombic,-2.088,0.012,-,15.532,0.000,5.951,6.133,8.511,90.0,90.0,90.0,1.616
SrCaO3,Sr,Ca,FALSE,not balanced,not balanced,1.44,1.00,cubic,-1.973,0.600,-,15.836,0.000,4.294,4.294,4.294,90.0,90.0,90.0,-1.703
SrCdO3,Sr,Cd,FALSE,not balanced,not balanced,1.44,0.95,orthorhombic,-1.506,0.284,-,14.211,0.000,5.820,5.978,8.170,90.0,90.0,90.0,-0.864
SrCeO3,Sr,Ce,TRUE,2,4,1.44,0.87,orthorhombic,-2.806,0.191,0.200,17.320,0.000,6.143,6.377,8.842,90.0,90.0,90.0,-0.685
SrCoO3,Sr,Co,TRUE,2,4,1.44,0.53,orthorhombic,-1.904,0.014,0.629,11.426,0.000,5.398,5.403,7.835,90.0,90.0,90.0,0.687
SrCrO3,Sr,Cr,FALSE,2,4,1.44,0.55,orthorhombic,-2.561,0.041,0.400,11.412,0.777,5.457,5.457,7.664,90.0,90.0,90.0,1.791
SrCsO3,Sr,Cs,FALSE,not balanced,not balanced,1.44,1.67,cubic,-0.835,0.985,-,18.430,0.000,4.517,4.517,4.517,90.0,90.0,90.0,-1.097