Chemical formula,A,B,In literature,Valence A,Valence B,Radius A [ang],Radius B [ang],Lowest distortion,Formation energy [eV/atom],Stability [eV/atom],Magnetic moment [mu_B],Volume per atom [A^3/atom],Band gap [eV],a [ang],b [ang],c [ang],alpha [deg],beta [deg],gamma [deg],Vacancy energy [eV/O atom]
PbPaO3,Pb,Pa,FALSE,element not in BV,element not in BV,1.49,0.91,orthorhombic,-2.410,-0.022,0.200,16.651,1.858,6.054,6.297,8.736,90.0,90.0,90.0,-
Pb2O3,Pb,Pb,FALSE,not balanced,not balanced,1.49,0.99,orthorhombic,-1.180,0.054,-,15.140,0.516,5.885,6.086,8.454,90.0,90.0,90.0,1.215
PbPdO3,Pb,Pd,FALSE,2,4,1.49,0.62,orthorhombic,-0.901,0.028,-,12.551,0.000,5.525,5.783,7.857,90.0,90.0,90.0,0.332
PbPmO3,Pb,Pm,FALSE,element not in BV,element not in BV,1.49,0.97,cubic,-1.897,0.559,-0.001,17.646,0.000,4.452,4.452,4.452,90.0,90.0,90.0,-1.241
PbPrO3,Pb,Pr,FALSE,2,4,1.49,0.85,cubic,-1.800,0.605,0.200,17.710,0.000,4.457,4.457,4.457,90.0,90.0,90.0,-1.388
PbPtO3,Pb,Pt,FALSE,element not in BV,element not in BV,1.49,0.67,orthorhombic,-0.899,0.109,0.001,12.928,0.000,5.595,5.806,7.959,90.0,90.0,90.0,0.893
PbPuO3,Pb,Pu,FALSE,element not in BV,element not in BV,1.49,0.83,orthorhombic,-2.540,-0.055,0.800,15.812,1.370,5.977,6.161,8.586,90.0,90.0,90.0,-
PbRbO3,Pb,Rb,FALSE,not balanced,not balanced,1.49,1.52,orthorhombic,-1.129,0.098,-,20.251,0.000,5.609,6.550,11.024,90.0,90.0,90.0,-2.822
PbReO3,Pb,Re,FALSE,2,4,1.49,0.63,cubic,-1.373,0.183,0.003,12.732,0.000,3.993,3.993,3.993,90.0,90.0,90.0,3.992
PbRhO3,Pb,Rh,FALSE,2,4,1.49,0.60,orthorhombic,-1.085,0.067,0.000,12.223,0.000,5.491,5.694,7.820,90.0,90.0,90.0,1.584
PbRuO3,Pb,Ru,FALSE,2,4,1.49,0.62,orthorhombic,-1.176,0.112,0.195,12.273,0.000,5.531,5.633,7.878,90.0,90.0,90.0,2.962
PbSbO3,Pb,Sb,FALSE,2,4,1.49,0.68,orthorhombic,-1.447,0.118,-,14.606,0.000,5.856,5.969,8.357,90.0,90.0,90.0,2.448
PbScO3,Pb,Sc,FALSE,not balanced,not balanced,1.49,0.75,orthorhombic,-2.402,0.119,-0.001,13.089,0.000,5.582,5.812,8.069,90.0,90.0,90.0,-0.488
PbSiO3,Pb,Si,FALSE,2,4,1.49,0.40,tetragonal,-2.126,0.276,-,11.559,1.837,3.493,3.493,4.738,90.0,90.0,90.0,4.910
PbSmO3,Pb,Sm,FALSE,not balanced,not balanced,1.49,0.96,cubic,-1.919,0.548,-0.008,17.381,0.000,4.429,4.429,4.429,90.0,90.0,90.0,-1.183
PbSnO3,Pb,Sn,FALSE,2,4,1.49,0.69,rhombohedral,-1.656,0.058,-,13.699,1.879,5.759,5.759,5.759,60.6,60.6,60.6,3.602
PbSrO3,Pb,Sr,FALSE,not balanced,not balanced,1.49,1.18,orthorhombic,-1.804,0.191,-,16.528,0.000,6.026,6.104,8.986,90.0,90.0,90.0,-3.800
PbTaO3,Pb,Ta,FALSE,2,4,1.49,0.68,rhombohedral,-2.291,0.165,0.000,13.368,0.000,5.712,5.712,5.712,60.6,60.6,60.6,-
PbTbO3,Pb,Tb,FALSE,2,4,1.49,0.76,orthorhombic,-2.273,0.124,0.001,15.019,0.000,5.822,6.068,8.503,90.0,90.0,90.0,-0.948
PbTcO3,Pb,Tc,FALSE,element not in BV,element not in BV,1.49,0.60,rhombohedral,-1.442,0.107,0.329,12.610,0.000,5.598,5.598,5.598,60.7,60.7,60.7,3.706
PbTeO3,Pb,Te,FALSE,2,4,1.49,0.97,tetragonal,-1.235,0.140,-,16.283,0.000,4.256,4.256,4.495,90.0,90.0,90.0,2.828
PbThO3,Pb,Th,FALSE,2,4,1.49,0.94,orthorhombic,-2.898,0.173,0.000,17.337,2.938,6.109,6.404,8.863,90.0,90.0,90.0,3.431
PbTiO3,Pb,Ti,TRUE,2,4,1.49,0.61,tetragonal,-2.517,-0.021,0.000,12.850,1.687,3.894,3.894,4.236,90.0,90.0,90.0,-
PbTlO3,Pb,Tl,FALSE,not balanced,not balanced,1.49,1.20,orthorhombic,-0.978,0.107,-,14.862,0.000,5.781,6.031,8.525,90.0,90.0,90.0,-0.911
PbTmO3,Pb,Tm,FALSE,not balanced,not balanced,1.49,0.96,orthorhombic,-2.464,0.119,0.000,14.402,0.000,5.744,5.996,8.363,90.0,90.0,90.0,-0.874
PbUO3,Pb,U,FALSE,2,4,1.49,0.89,orthorhombic,-2.715,0.105,0.400,16.492,1.935,6.032,6.278,8.711,90.0,90.0,90.0,-
PbVO3,Pb,V,FALSE,2,4,1.49,0.58,tetragonal,-2.050,0.033,0.200,13.155,1.006,3.874,3.874,4.383,90.0,90.0,90.0,3.148
PbWO3,Pb,W,FALSE,2,4,1.49,0.66,cubic,-1.749,0.225,0.000,12.956,0.000,4.016,4.016,4.016,90.0,90.0,90.0,-
PbYO3,Pb,Y,FALSE,not balanced,not balanced,1.49,0.90,orthorhombic,-2.399,0.122,0.000,14.833,0.000,5.791,6.038,8.484,90.0,90.0,90.0,-0.732
PbYbO3,Pb,Yb,FALSE,not balanced,not balanced,1.49,0.95,cubic,-1.386,0.794,-,14.875,0.000,4.205,4.205,4.205,90.0,90.0,90.0,-3.066
PbZnO3,Pb,Zn,FALSE,not balanced,not balanced,1.49,0.74,orthorhombic,-1.255,0.073,-,11.809,0.000,5.318,5.542,8.013,90.0,90.0,90.0,-2.368
PbZrO3,Pb,Zr,TRUE,2,4,1.49,0.72,orthorhombic,-2.678,0.030,0.000,14.136,2.846,5.800,5.895,8.269,90.0,90.0,90.0,-
PdAcO3,Pd,Ac,FALSE,element not in BV,element not in BV,0.75,1.12,orthorhombic,-1.838,0.334,0.000,15.784,0.000,5.948,6.172,8.599,90.0,90.0,90.0,-4.680
PdAgO3,Pd,Ag,FALSE,3,3,0.76,0.75,cubic,0.553,0.991,-,12.705,0.000,3.990,3.990,3.990,90.0,90.0,90.0,-5.204
PdAlO3,Pd,Al,FALSE,3,3,0.76,0.54,cubic,-1.341,0.551,-,9.822,0.000,3.662,3.662,3.662,90.0,90.0,90.0,-1.435
PdAsO3,Pd,As,FALSE,3,3,0.76,0.58,cubic,-0.448,0.649,-,10.690,0.000,3.767,3.767,3.767,90.0,90.0,90.0,0.356
PdAuO3,Pd,Au,FALSE,element not in BV,element not in BV,0.75,0.93,cubic,0.523,0.924,-,13.074,0.000,4.028,4.028,4.028,90.0,90.0,90.0,-1.681
PdBO3,Pd,B,FALSE,3,3,0.76,0.27,cubic,-0.392,1.179,-,7.821,0.000,3.394,3.394,3.394,90.0,90.0,90.0,-1.727
PdBaO3,Pd,Ba,FALSE,not balanced,not balanced,0.75,1.35,rhombohedral,-1.305,0.231,-,19.031,0.613,6.594,6.594,6.594,57.3,57.3,57.3,-9.143
PdBeO3,Pd,Be,FALSE,4,2,0.62,0.45,cubic,-0.685,0.761,-,8.288,0.000,3.461,3.461,3.461,90.0,90.0,90.0,-3.744
PdBiO3,Pd,Bi,FALSE,not balanced,not balanced,0.75,0.90,cubic,-0.284,0.747,-,14.509,0.000,4.171,4.171,4.171,90.0,90.0,90.0,-2.389
PdCaO3,Pd,Ca,FALSE,not balanced,not balanced,0.75,1.00,rhombohedral,-1.339,0.375,-,14.223,0.536,6.000,6.000,6.000,57.0,57.0,57.0,-8.953
PdCdO3,Pd,Cd,FALSE,not balanced,not balanced,0.75,0.95,cubic,0.390,1.282,-,13.687,0.000,4.090,4.090,4.090,90.0,90.0,90.0,-7.230
PdCeO3,Pd,Ce,FALSE,2,4,0.86,0.87,orthorhombic,-1.756,0.351,0.000,14.554,0.000,5.847,6.056,8.220,90.0,90.0,90.0,-5.490
PdCoO3,Pd,Co,FALSE,2,4,0.86,0.53,cubic,-0.166,0.720,0.025,10.092,0.000,3.695,3.695,3.695,90.0,90.0,90.0,-0.712
PdCrO3,Pd,Cr,FALSE,2,4,0.86,0.55,cubic,-0.972,0.554,-0.001,10.735,0.000,3.772,3.772,3.772,90.0,90.0,90.0,0.047
PdCsO3,Pd,Cs,FALSE,not balanced,not balanced,0.75,1.67,orthorhombic,-0.714,0.188,-,19.999,0.000,6.351,6.642,9.483,90.0,90.0,90.0,-11.243
PdCuO3,Pd,Cu,FALSE,3,3,0.76,0.54,cubic,0.102,0.716,-,10.167,0.000,3.704,3.704,3.704,90.0,90.0,90.0,-3.672
PdDyO3,Pd,Dy,FALSE,3,3,0.76,0.91,cubic,-1.171,1.034,0.596,16.232,0.000,4.330,4.330,4.330,90.0,90.0,90.0,-4.539
PdErO3,Pd,Er,FALSE,3,3,0.76,0.89,cubic,-1.233,0.975,0.599,15.769,0.000,4.288,4.288,4.288,90.0,90.0,90.0,-4.271
PdEuO3,Pd,Eu,FALSE,3,3,0.76,0.95,orthorhombic,-1.498,0.386,0.000,13.416,0.000,5.834,5.856,7.854,90.0,90.0,90.0,-6.021
PdFeO3,Pd,Fe,FALSE,3,3,0.76,0.65,cubic,-0.509,0.576,0.400,10.699,0.000,3.768,3.768,3.768,90.0,90.0,90.0,-1.858
PdGaO3,Pd,Ga,FALSE,3,3,0.76,0.62,cubic,-0.575,0.735,-,10.970,0.000,3.800,3.800,3.800,90.0,90.0,90.0,-3.072
PdGdO3,Pd,Gd,FALSE,3,3,0.76,0.94,cubic,-1.012,1.218,-0.040,16.679,0.000,4.369,4.369,4.369,90.0,90.0,90.0,-5.740
PdGeO3,Pd,Ge,FALSE,2,4,0.86,0.53,cubic,-0.737,0.656,-,10.377,0.000,3.730,3.730,3.730,90.0,90.0,90.0,0.441
PdHfO3,Pd,Hf,FALSE,2,4,0.86,0.71,cubic,-1.905,0.658,0.394,13.454,0.000,4.067,4.067,4.067,90.0,90.0,90.0,-0.190
PdHgO3,Pd,Hg,FALSE,not balanced,not balanced,0.75,1.11,orthorhombic,-0.193,0.332,-,12.738,0.000,5.377,5.587,8.481,90.0,90.0,90.0,-6.560
PdHoO3,Pd,Ho,FALSE,3,3,0.76,0.90,cubic,-1.203,0.994,0.600,15.991,0.000,4.308,4.308,4.308,90.0,90.0,90.0,-4.397
PdInO3,Pd,In,FALSE,3,3,0.76,0.80,cubic,-0.175,1.007,-,13.874,0.000,4.109,4.109,4.109,90.0,90.0,90.0,-4.979
PdIrO3,Pd,Ir,FALSE,2,4,0.86,0.63,cubic,-0.197,0.702,0.006,11.656,0.000,3.877,3.877,3.877,90.0,90.0,90.0,1.110
PdKO3,Pd,K,FALSE,not balanced,not balanced,0.75,1.38,orthorhombic,-0.714,0.237,-,17.378,0.000,5.907,6.447,9.127,90.0,90.0,90.0,-14.989
PdLaO3,Pd,La,FALSE,3,3,0.76,1.03,orthorhombic,-1.869,0.334,0.000,14.471,0.000,5.815,6.028,8.256,90.0,90.0,90.0,-5.572
PdLiO3,Pd,Li,FALSE,not balanced,not balanced,0.75,0.76,cubic,0.081,1.132,-,8.929,0.000,3.547,3.547,3.547,90.0,90.0,90.0,-6.635
PdLuO3,Pd,Lu,FALSE,3,3,0.76,0.86,cubic,-1.321,0.920,0.590,14.877,0.000,4.206,4.206,4.206,90.0,90.0,90.0,-3.880
PdMgO3,Pd,Mg,FALSE,not balanced,not balanced,0.75,0.72,cubic,-0.535,0.921,-,10.898,0.000,3.791,3.791,3.791,90.0,90.0,90.0,-5.454
PdMnO3,Pd,Mn,FALSE,2,4,0.86,0.53,cubic,-0.738,0.572,0.200,10.725,0.000,3.771,3.771,3.771,90.0,90.0,90.0,-1.097
PdMoO3,Pd,Mo,FALSE,2,4,0.86,0.65,orthorhombic,-1.322,0.408,-0.055,11.176,0.000,5.258,5.581,7.617,90.0,90.0,90.0,3.431
PdNaO3,Pd,Na,FALSE,not balanced,not balanced,0.75,1.02,cubic,0.776,1.765,-,12.341,0.000,3.952,3.952,3.952,90.0,90.0,90.0,-10.644
PdNbO3,Pd,Nb,FALSE,2,4,0.86,0.68,orthorhombic,-1.760,0.353,0.200,11.769,0.000,5.391,5.630,7.755,90.0,90.0,90.0,2.500
PdNdO3,Pd,Nd,FALSE,3,3,0.76,0.98,cubic,-0.941,1.248,0.600,17.921,0.000,4.475,4.475,4.475,90.0,90.0,90.0,-5.275
PdNiO3,Pd,Ni,FALSE,2,4,0.86,0.48,cubic,-0.067,0.690,0.811,9.996,0.000,3.684,3.684,3.684,90.0,90.0,90.0,-3.072
PdNpO3,Pd,Np,FALSE,element not in BV,element not in BV,0.75,0.86,cubic,-1.563,0.923,0.200,18.698,0.000,4.539,4.539,4.539,90.0,90.0,90.0,-
PdOsO3,Pd,Os,FALSE,element not in BV,element not in BV,0.75,0.57,orthorhombic,-0.676,0.305,0.002,10.869,0.000,5.251,5.576,7.425,90.0,90.0,90.0,2.777
PdPaO3,Pd,Pa,FALSE,element not in BV,element not in BV,0.75,0.91,tetragonal,-2.167,-0.048,0.000,16.975,0.000,4.235,4.477,4.477,90.0,90.0,90.0,2.262
PdPbO3,Pd,Pb,FALSE,2,4,0.86,0.78,orthorhombic,-0.656,0.273,-,13.025,0.000,5.382,5.752,8.415,90.0,90.0,90.0,-3.693
Pd2O3,Pd,Pd,FALSE,3,3,0.76,0.76,cubic,0.207,0.726,-,12.035,0.000,3.919,3.919,3.919,90.0,90.0,90.0,-2.526
PdPmO3,Pd,Pm,FALSE,element not in BV,element not in BV,0.75,0.97,orthorhombic,-1.829,0.331,0.000,13.745,0.000,5.695,5.937,8.130,90.0,90.0,90.0,-5.166
PdPrO3,Pd,Pr,FALSE,3,3,0.76,0.99,orthorhombic,-1.781,0.356,0.000,14.240,0.000,5.785,6.016,8.183,90.0,90.0,90.0,-5.349
PdPtO3,Pd,Pt,FALSE,element not in BV,element not in BV,0.75,0.67,cubic,0.123,0.827,0.529,12.306,0.000,3.948,3.948,3.948,90.0,90.0,90.0,-0.514
PdPuO3,Pd,Pu,FALSE,element not in BV,element not in BV,0.75,0.83,cubic,-1.478,0.738,0.401,15.514,0.000,4.265,4.265,4.265,90.0,90.0,90.0,-0.228
PdRbO3,Pd,Rb,FALSE,not balanced,not balanced,0.75,1.52,cubic,1.247,2.143,-,15.965,0.000,4.306,4.306,4.306,90.0,90.0,90.0,-14.653
PdReO3,Pd,Re,FALSE,2,4,0.86,0.63,cubic,-0.958,0.562,-0.032,11.548,0.000,3.865,3.865,3.865,90.0,90.0,90.0,3.701
PdRhO3,Pd,Rh,FALSE,2,4,0.86,0.60,cubic,-0.137,0.745,0.375,11.644,0.000,3.876,3.876,3.876,90.0,90.0,90.0,-0.412
PdRuO3,Pd,Ru,FALSE,2,4,0.86,0.62,cubic,-0.455,0.564,-0.013,11.384,0.000,3.847,3.847,3.847,90.0,90.0,90.0,1.850
PdSbO3,Pd,Sb,FALSE,2,4,0.86,0.68,cubic,-0.726,0.525,-,12.358,0.000,3.953,3.953,3.953,90.0,90.0,90.0,1.009
PdScO3,Pd,Sc,FALSE,3,3,0.76,0.75,cubic,-1.289,0.874,-0.005,13.009,0.000,4.022,4.022,4.022,90.0,90.0,90.0,-3.967
PdSiO3,Pd,Si,FALSE,2,4,0.86,0.40,cubic,-1.372,0.732,-,9.053,0.000,3.564,3.564,3.564,90.0,90.0,90.0,1.398
PdSmO3,Pd,Sm,FALSE,3,3,0.76,0.96,cubic,-1.010,1.156,0.600,17.017,0.000,4.398,4.398,4.398,90.0,90.0,90.0,-5.138
PdSnO3,Pd,Sn,FALSE,2,4,0.86,0.69,cubic,-0.679,0.753,-,12.972,0.000,4.018,4.018,4.018,90.0,90.0,90.0,-0.903
PdSrO3,Pd,Sr,FALSE,not balanced,not balanced,0.75,1.18,rhombohedral,-1.310,0.326,-,16.018,0.599,6.077,6.077,6.077,60.4,60.4,60.4,-9.287
PdTaO3,Pd,Ta,FALSE,2,4,0.86,0.68,orthorhombic,-1.982,0.339,0.200,11.713,0.000,5.416,5.577,7.755,90.0,90.0,90.0,3.197
PdTbO3,Pd,Tb,FALSE,2,4,0.86,0.76,cubic,-1.006,1.063,0.593,16.456,0.000,4.349,4.349,4.349,90.0,90.0,90.0,-4.687
PdTcO3,Pd,Tc,FALSE,element not in BV,element not in BV,0.75,0.60,orthorhombic,-0.992,0.288,0.008,10.846,0.000,5.218,5.541,7.502,90.0,90.0,90.0,2.926
PdTeO3,Pd,Te,FALSE,2,4,0.86,0.97,cubic,-0.408,0.631,-,13.040,0.000,4.025,4.025,4.025,90.0,90.0,90.0,0.405
PdThO3,Pd,Th,FALSE,2,4,0.86,0.94,cubic,-1.746,1.055,0.425,18.304,0.000,4.507,4.507,4.507,90.0,90.0,90.0,-2.178
PdTiO3,Pd,Ti,FALSE,2,4,0.86,0.61,cubic,-1.650,0.555,0.396,11.464,0.000,3.856,3.856,3.856,90.0,90.0,90.0,0.139
PdTlO3,Pd,Tl,FALSE,3,3,0.76,0.89,cubic,0.374,1.116,-,14.691,0.000,4.188,4.188,4.188,90.0,90.0,90.0,-6.100
PdTmO3,Pd,Tm,FALSE,3,3,0.76,0.88,cubic,-1.270,0.956,0.602,15.325,0.000,4.247,4.247,4.247,90.0,90.0,90.0,-3.996
PdUO3,Pd,U,FALSE,2,4,0.86,0.89,cubic,-1.997,0.555,0.000,14.913,0.538,4.209,4.209,4.209,90.0,90.0,90.0,1.740
PdVO3,Pd,V,FALSE,2,4,0.86,0.58,cubic,-1.267,0.495,0.203,10.691,0.000,3.767,3.767,3.767,90.0,90.0,90.0,1.653
PdWO3,Pd,W,FALSE,2,4,0.86,0.66,cubic,-1.411,0.546,-0.062,11.819,0.000,3.895,3.895,3.895,90.0,90.0,90.0,4.195
PdYO3,Pd,Y,FALSE,3,3,0.76,0.90,cubic,-1.149,1.080,0.600,16.398,0.000,4.344,4.344,4.344,90.0,90.0,90.0,-4.518
PdYbO3,Pd,Yb,FALSE,3,3,0.76,0.87,orthorhombic,-1.535,0.359,-,12.384,0.215,5.371,5.643,8.172,90.0,90.0,90.0,-8.424
PdZnO3,Pd,Zn,FALSE,not balanced,not balanced,0.75,0.74,cubic,-0.012,0.907,-,11.020,0.000,3.805,3.805,3.805,90.0,90.0,90.0,-5.331
PdZrO3,Pd,Zr,FALSE,2,4,0.86,0.72,cubic,-1.720,0.719,0.397,14.033,0.000,4.124,4.124,4.124,90.0,90.0,90.0,-0.785
PmAcO3,Pm,Ac,FALSE,element not in BV,element not in BV,1.14,1.12,cubic,-2.333,1.295,0.000,20.362,0.000,4.669,4.669,4.669,90.0,90.0,90.0,1.524
PmAgO3,Pm,Ag,FALSE,element not in BV,element not in BV,1.14,0.95,orthorhombic,-1.920,0.031,0.000,13.176,0.000,5.547,6.017,7.895,90.0,90.0,90.0,-0.098
PmAlO3,Pm,Al,FALSE,element not in BV,element not in BV,1.14,0.54,orthorhombic,-3.531,-0.060,0.000,10.553,4.732,5.301,5.311,7.496,90.0,90.0,90.0,6.434
PmAsO3,Pm,As,FALSE,element not in BV,element not in BV,1.14,0.52,cubic,-2.032,0.529,0.000,13.018,0.000,4.023,4.023,4.023,90.0,90.0,90.0,2.566
PmAuO3,Pm,Au,FALSE,element not in BV,element not in BV,1.14,0.93,cubic,-1.432,0.547,0.000,13.919,0.000,4.113,4.113,4.113,90.0,90.0,90.0,-0.196
PmBO3,Pm,B,FALSE,element not in BV,element not in BV,1.14,0.27,cubic,-2.462,0.687,0.000,8.751,2.590,3.524,3.524,3.524,90.0,90.0,90.0,5.137
PmBaO3,Pm,Ba,FALSE,element not in BV,element not in BV,1.14,1.35,orthorhombic,-2.725,0.291,0.113,19.352,0.000,6.055,6.094,10.489,90.0,90.0,90.0,-5.830
PmBeO3,Pm,Be,FALSE,element not in BV,element not in BV,1.14,0.45,cubic,-2.724,0.301,0.200,9.372,0.000,3.605,3.605,3.605,90.0,90.0,90.0,-0.532
PmBiO3,Pm,Bi,FALSE,element not in BV,element not in BV,1.14,0.90,cubic,-1.683,0.893,0.000,16.837,0.000,4.383,4.383,4.383,90.0,90.0,90.0,1.300
PmCaO3,Pm,Ca,FALSE,element not in BV,element not in BV,1.14,1.00,cubic,-2.296,0.833,0.200,14.252,0.000,4.146,4.146,4.146,90.0,90.0,90.0,-2.197
PmCdO3,Pm,Cd,FALSE,element not in BV,element not in BV,1.14,0.95,cubic,-1.735,0.598,0.000,13.902,0.000,4.112,4.112,4.112,90.0,90.0,90.0,-0.528
PmCeO3,Pm,Ce,FALSE,element not in BV,element not in BV,1.14,0.94,cubic,-2.477,1.121,0.000,18.779,0.759,4.545,4.545,4.545,90.0,90.0,90.0,2.324
PmCoO3,Pm,Co,FALSE,element not in BV,element not in BV,1.14,0.63,orthorhombic,-2.479,-0.014,0.400,11.223,0.000,5.313,5.538,7.629,90.0,90.0,90.0,2.990
PmCrO3,Pm,Cr,FALSE,element not in BV,element not in BV,1.14,0.58,orthorhombic,-3.143,-0.063,0.600,11.625,2.375,5.386,5.594,7.716,90.0,90.0,90.0,4.594
PmCsO3,Pm,Cs,FALSE,element not in BV,element not in BV,1.14,1.67,orthorhombic,-1.872,0.530,0.000,19.320,0.504,5.493,6.203,11.340,90.0,90.0,90.0,-
PmCuO3,Pm,Cu,FALSE,element not in BV,element not in BV,1.14,0.68,orthorhombic,-2.204,-0.044,0.000,11.154,0.000,5.308,5.566,7.550,90.0,90.0,90.0,1.154
PmDyO3,Pm,Dy,FALSE,element not in BV,element not in BV,1.14,0.99,cubic,-3.055,0.708,0.000,15.647,1.763,4.277,4.277,4.277,90.0,90.0,90.0,2.340
PmErO3,Pm,Er,FALSE,element not in BV,element not in BV,1.14,0.89,cubic,-3.150,0.637,0.000,15.130,1.765,4.229,4.229,4.229,90.0,90.0,90.0,4.536
PmEuO3,Pm,Eu,FALSE,element not in BV,element not in BV,1.14,1.06,cubic,-2.289,0.908,0.114,15.528,0.000,4.266,4.266,4.266,90.0,90.0,90.0,-1.453
PmFeO3,Pm,Fe,FALSE,element not in BV,element not in BV,1.14,0.67,orthorhombic,-2.727,-0.063,1.000,11.787,1.119,5.405,5.639,7.735,90.0,90.0,90.0,3.700
PmGaO3,Pm,Ga,FALSE,element not in BV,element not in BV,1.14,0.62,orthorhombic,-2.912,-0.023,0.000,11.543,4.033,5.389,5.565,7.699,90.0,90.0,90.0,4.789
PmGdO3,Pm,Gd,FALSE,element not in BV,element not in BV,1.14,0.94,cubic,-2.945,0.789,0.000,16.231,1.645,4.330,4.330,4.330,90.0,90.0,90.0,2.173
PmGeO3,Pm,Ge,FALSE,element not in BV,element not in BV,1.14,0.63,orthorhombic,-2.526,0.163,0.000,12.563,0.000,5.466,5.823,7.894,90.0,90.0,90.0,3.113
PmHfO3,Pm,Hf,FALSE,element not in BV,element not in BV,1.14,0.71,orthorhombic,-3.402,0.163,0.082,13.113,0.000,5.574,6.071,7.750,90.0,90.0,90.0,4.916
PmHgO3,Pm,Hg,FALSE,element not in BV,element not in BV,1.14,1.11,cubic,-1.328,0.692,0.000,14.851,0.000,4.203,4.203,4.203,90.0,90.0,90.0,-0.497
PmHoO3,Pm,Ho,FALSE,element not in BV,element not in BV,1.14,0.90,cubic,-3.105,0.671,0.000,15.393,1.764,4.254,4.254,4.254,90.0,90.0,90.0,4.431
PmInO3,Pm,In,FALSE,element not in BV,element not in BV,1.14,0.80,orthorhombic,-2.737,0.023,0.000,13.553,3.011,5.610,5.928,8.151,90.0,90.0,90.0,3.286
PmIrO3,Pm,Ir,FALSE,element not in BV,element not in BV,1.14,0.63,cubic,-1.763,0.554,0.001,12.562,0.000,3.975,3.975,3.975,90.0,90.0,90.0,-0.201
PmKO3,Pm,K,FALSE,element not in BV,element not in BV,1.14,1.38,cubic,-0.876,1.540,-0.029,14.719,0.000,4.191,4.191,4.191,90.0,90.0,90.0,-3.294
PmLaO3,Pm,La,FALSE,element not in BV,element not in BV,1.14,1.03,cubic,-2.599,1.096,0.000,18.490,0.539,4.522,4.522,4.522,90.0,90.0,90.0,2.257
PmLiO3,Pm,Li,FALSE,element not in BV,element not in BV,1.14,0.76,orthorhombic,-2.234,0.286,0.400,10.996,0.000,5.077,5.823,7.439,90.0,90.0,90.0,-0.854
PmLuO3,Pm,Lu,FALSE,element not in BV,element not in BV,1.14,0.86,cubic,-3.286,0.533,0.000,14.490,2.163,4.169,4.169,4.169,90.0,90.0,90.0,4.894
PmMgO3,Pm,Mg,FALSE,element not in BV,element not in BV,1.14,0.72,orthorhombic,-2.875,0.150,0.200,11.885,0.000,5.363,5.756,7.701,90.0,90.0,90.0,-0.848
PmMnO3,Pm,Mn,FALSE,element not in BV,element not in BV,1.14,0.62,orthorhombic,-2.905,-0.058,0.800,11.834,0.000,5.398,5.740,7.639,90.0,90.0,90.0,3.763
PmMoO3,Pm,Mo,FALSE,element not in BV,element not in BV,1.14,0.62,orthorhombic,-2.631,0.177,0.588,12.787,0.000,5.489,5.893,7.907,90.0,90.0,90.0,2.505
PmNaO3,Pm,Na,FALSE,element not in BV,element not in BV,1.14,1.02,cubic,-1.557,0.861,0.400,12.461,0.000,3.964,3.964,3.964,90.0,90.0,90.0,-2.163
PmNbO3,Pm,Nb,FALSE,element not in BV,element not in BV,1.14,0.68,orthorhombic,-2.946,0.139,0.001,12.858,0.000,5.489,6.010,7.797,90.0,90.0,90.0,3.772
PmNdO3,Pm,Nd,FALSE,element not in BV,element not in BV,1.14,0.98,cubic,-2.654,0.994,0.000,17.772,1.156,4.462,4.462,4.462,90.0,90.0,90.0,2.951
PmNiO3,Pm,Ni,FALSE,element not in BV,element not in BV,1.14,0.59,orthorhombic,-2.348,-0.014,0.200,10.999,0.000,5.307,5.476,7.570,90.0,90.0,90.0,1.376
PmNpO3,Pm,Np,FALSE,element not in BV,element not in BV,1.14,0.86,cubic,-2.723,0.856,0.793,17.295,0.000,4.422,4.422,4.422,90.0,90.0,90.0,3.499
PmOsO3,Pm,Os,FALSE,element not in BV,element not in BV,1.14,0.57,cubic,-1.810,0.551,0.002,12.413,0.000,3.959,3.959,3.959,90.0,90.0,90.0,0.818
PmPaO3,Pm,Pa,FALSE,element not in BV,element not in BV,1.14,0.91,cubic,-2.504,0.729,0.306,17.835,0.000,4.468,4.468,4.468,90.0,90.0,90.0,4.720
PmPbO3,Pm,Pb,FALSE,element not in BV,element not in BV,1.14,0.99,cubic,-1.626,0.830,0.000,15.165,0.000,4.233,4.233,4.233,90.0,90.0,90.0,-
PmPdO3,Pm,Pd,FALSE,element not in BV,element not in BV,1.14,0.75,orthorhombic,-2.160,-0.060,0.001,12.489,0.000,5.486,5.934,7.672,90.0,90.0,90.0,0.446
Pm2O3,Pm,Pm,FALSE,element not in BV,element not in BV,1.14,0.97,cubic,-2.742,0.934,0.000,17.285,1.171,4.421,4.421,4.421,90.0,90.0,90.0,3.245
PmPrO3,Pm,Pr,FALSE,element not in BV,element not in BV,1.14,0.92,cubic,-2.572,1.054,0.000,18.234,0.965,4.501,4.501,4.501,90.0,90.0,90.0,2.660
PmPtO3,Pm,Pt,FALSE,element not in BV,element not in BV,1.14,0.67,orthorhombic,-2.094,0.093,0.000,12.675,0.000,5.530,6.102,7.513,90.0,90.0,90.0,0.022
PmPuO3,Pm,Pu,FALSE,element not in BV,element not in BV,1.14,0.83,cubic,-2.419,1.236,0.968,22.161,0.000,4.803,4.803,4.803,90.0,90.0,90.0,-0.823