Chemical formula,A,B,In literature,Valence A,Valence B,Radius A [ang],Radius B [ang],Lowest distortion,Formation energy [eV/atom],Stability [eV/atom],Magnetic moment [mu_B],Volume per atom [A^3/atom],Band gap [eV],a [ang],b [ang],c [ang],alpha [deg],beta [deg],gamma [deg],Vacancy energy [eV/O atom]
MoFeO3,Mo,Fe,FALSE,4,2,0.65,0.78,cubic,-0.677,1.263,1.600,10.904,0.000,3.792,3.792,3.792,90.0,90.0,90.0,-2.265
MoGaO3,Mo,Ga,FALSE,3,3,0.69,0.62,cubic,-0.918,1.105,0.600,10.700,0.000,3.768,3.768,3.768,90.0,90.0,90.0,-1.156
MoGdO3,Mo,Gd,FALSE,3,3,0.69,0.94,cubic,-1.095,1.785,0.604,16.124,0.000,4.320,4.320,4.320,90.0,90.0,90.0,-6.964
MoGeO3,Mo,Ge,FALSE,not balanced,not balanced,0.73,0.63,cubic,-0.788,1.072,0.780,10.769,0.000,3.776,3.776,3.776,90.0,90.0,90.0,1.353
MoHfO3,Mo,Hf,FALSE,3,3,0.69,0.71,cubic,-1.894,1.056,0.800,13.424,0.000,4.064,4.064,4.064,90.0,90.0,90.0,0.470
MoHgO3,Mo,Hg,FALSE,4,2,0.65,1.02,cubic,0.539,2.269,0.695,14.256,0.000,4.146,4.146,4.146,90.0,90.0,90.0,-10.695
MoHoO3,Mo,Ho,FALSE,4,2,0.65,0.90,cubic,-1.236,1.670,0.598,15.318,0.000,4.247,4.247,4.247,90.0,90.0,90.0,-6.047
MoInO3,Mo,In,FALSE,3,3,0.69,0.80,rhombohedral,-1.338,0.570,0.582,13.082,0.000,5.705,5.705,5.705,59.8,59.8,59.8,-5.376
MoIrO3,Mo,Ir,FALSE,3,3,0.69,0.68,cubic,-0.073,1.658,0.578,12.069,0.000,3.922,3.922,3.922,90.0,90.0,90.0,-2.497
MoKO3,Mo,K,FALSE,not balanced,not balanced,0.73,1.38,orthorhombic,-2.074,0.205,0.018,17.230,0.000,5.423,6.188,10.268,90.0,90.0,90.0,-19.535
MoLaO3,Mo,La,FALSE,3,3,0.69,1.03,cubic,-0.886,2.005,0.600,17.735,0.000,4.459,4.459,4.459,90.0,90.0,90.0,-8.239
MoLiO3,Mo,Li,FALSE,not balanced,not balanced,0.73,0.76,orthorhombic,-2.056,0.266,0.027,9.258,0.000,4.760,5.048,7.706,90.0,90.0,90.0,-5.319
MoLuO3,Mo,Lu,FALSE,3,3,0.69,0.86,cubic,-1.410,1.541,0.600,14.329,0.000,4.153,4.153,4.153,90.0,90.0,90.0,-4.815
MoMgO3,Mo,Mg,FALSE,4,2,0.65,0.72,cubic,-1.045,1.476,0.400,10.244,0.000,3.714,3.714,3.714,90.0,90.0,90.0,-4.539
MoMnO3,Mo,Mn,FALSE,3,3,0.69,0.65,cubic,-0.905,1.259,1.400,10.908,0.000,3.792,3.792,3.792,90.0,90.0,90.0,-2.055
Mo2O3,Mo,Mo,FALSE,3,3,0.69,0.69,cubic,-0.959,0.980,0.861,12.207,0.000,3.937,3.937,3.937,90.0,90.0,90.0,2.276
MoNaO3,Mo,Na,FALSE,not balanced,not balanced,0.73,1.02,orthorhombic,-1.981,0.282,0.073,13.047,0.000,5.552,5.614,8.372,90.0,90.0,90.0,-13.886
MoNbO3,Mo,Nb,FALSE,4,2,0.65,0.72,cubic,-1.392,0.914,0.875,12.973,0.000,4.018,4.018,4.018,90.0,90.0,90.0,4.100
MoNdO3,Mo,Nd,FALSE,3,3,0.69,0.98,cubic,-0.868,1.955,0.583,17.452,0.000,4.435,4.435,4.435,90.0,90.0,90.0,-8.140
MoNiO3,Mo,Ni,FALSE,4,2,0.65,0.69,cubic,-0.471,1.335,0.800,9.941,0.000,3.677,3.677,3.677,90.0,90.0,90.0,-3.207
MoNpO3,Mo,Np,FALSE,element not in BV,element not in BV,0.73,0.86,cubic,-1.366,1.506,-0.446,16.413,0.000,4.346,4.346,4.346,90.0,90.0,90.0,-3.762
MoOsO3,Mo,Os,FALSE,element not in BV,element not in BV,0.73,0.57,cubic,-0.247,1.483,0.609,11.964,0.000,3.911,3.911,3.911,90.0,90.0,90.0,0.001
MoPaO3,Mo,Pa,FALSE,element not in BV,element not in BV,0.73,0.91,cubic,-1.551,0.954,1.000,16.736,0.000,4.374,4.374,4.374,90.0,90.0,90.0,1.350
MoPbO3,Mo,Pb,FALSE,not balanced,not balanced,0.73,0.99,rhombohedral,-1.516,0.372,0.000,16.019,0.503,5.757,5.757,5.757,68.9,68.9,68.9,-
MoPdO3,Mo,Pd,FALSE,4,2,0.65,0.86,cubic,0.039,1.770,0.601,12.131,0.000,3.929,3.929,3.929,90.0,90.0,90.0,-5.914
MoPmO3,Mo,Pm,FALSE,element not in BV,element not in BV,0.73,0.97,cubic,-0.933,1.875,0.600,17.050,0.000,4.401,4.401,4.401,90.0,90.0,90.0,-7.846
MoPrO3,Mo,Pr,FALSE,3,3,0.69,0.99,cubic,-0.812,1.973,0.603,17.869,0.000,4.471,4.471,4.471,90.0,90.0,90.0,-8.375
MoPtO3,Mo,Pt,FALSE,element not in BV,element not in BV,0.73,0.67,cubic,0.120,1.851,0.639,12.547,0.000,3.973,3.973,3.973,90.0,90.0,90.0,-3.673
MoPuO3,Mo,Pu,FALSE,element not in BV,element not in BV,0.73,0.83,tetragonal,-1.925,0.862,0.978,13.881,0.000,3.585,3.585,5.401,90.0,90.0,90.0,-
MoRbO3,Mo,Rb,FALSE,not balanced,not balanced,0.73,1.52,orthorhombic,-2.089,0.184,0.021,18.867,0.000,5.460,6.384,10.825,90.0,90.0,90.0,-20.254
MoReO3,Mo,Re,FALSE,4,2,0.65,0.63,cubic,-0.597,1.208,0.862,11.994,0.000,3.914,3.914,3.914,90.0,90.0,90.0,1.194
MoRhO3,Mo,Rh,FALSE,3,3,0.69,0.67,cubic,-0.181,1.549,0.530,11.805,0.000,3.894,3.894,3.894,90.0,90.0,90.0,-1.347
MoRuO3,Mo,Ru,FALSE,4,2,0.65,0.68,cubic,-0.339,1.392,0.477,11.755,0.000,3.888,3.888,3.888,90.0,90.0,90.0,0.101
MoSbO3,Mo,Sb,FALSE,not balanced,not balanced,0.73,0.68,cubic,-0.517,1.303,0.893,13.416,0.000,4.063,4.063,4.063,90.0,90.0,90.0,0.980
MoScO3,Mo,Sc,FALSE,3,3,0.69,0.75,cubic,-1.553,1.320,0.600,12.518,0.000,3.970,3.970,3.970,90.0,90.0,90.0,-3.025
MoSiO3,Mo,Si,FALSE,not balanced,not balanced,0.73,0.40,cubic,-1.363,1.128,0.796,9.375,0.000,3.606,3.606,3.606,90.0,90.0,90.0,3.183
MoSmO3,Mo,Sm,FALSE,4,2,0.65,1.22,cubic,-0.972,1.869,0.599,16.797,0.000,4.379,4.379,4.379,90.0,90.0,90.0,-7.626
MoSnO3,Mo,Sn,FALSE,not balanced,not balanced,0.73,0.69,orthorhombic,-1.545,0.363,0.000,11.997,0.000,5.470,6.511,6.737,90.0,90.0,90.0,1.663
MoSrO3,Mo,Sr,FALSE,4,2,0.65,1.18,rhombohedral,-2.310,0.326,0.000,16.330,0.638,6.015,6.015,6.015,62.8,62.8,62.8,-13.854
MoTaO3,Mo,Ta,FALSE,4,2,0.65,0.72,cubic,-1.582,0.932,0.912,12.765,0.000,3.996,3.996,3.996,90.0,90.0,90.0,4.762
MoTbO3,Mo,Tb,FALSE,4,2,0.65,0.92,cubic,-1.013,1.744,0.599,15.850,0.000,4.295,4.295,4.295,90.0,90.0,90.0,-6.658
MoTcO3,Mo,Tc,FALSE,element not in BV,element not in BV,0.73,0.60,cubic,-0.626,1.177,0.830,11.881,0.000,3.902,3.902,3.902,90.0,90.0,90.0,1.248
MoTeO3,Mo,Te,FALSE,not balanced,not balanced,0.73,0.77,cubic,-0.220,1.510,0.875,14.311,0.000,4.152,4.152,4.152,90.0,90.0,90.0,-1.090
MoThO3,Mo,Th,FALSE,not balanced,not balanced,0.73,0.94,cubic,-1.598,1.590,0.800,18.663,0.000,4.536,4.536,4.536,90.0,90.0,90.0,-3.025
MoTiO3,Mo,Ti,FALSE,3,3,0.69,0.67,cubic,-1.678,0.914,0.780,11.500,0.000,3.860,3.860,3.860,90.0,90.0,90.0,1.916
MoTlO3,Mo,Tl,FALSE,3,3,0.69,0.89,orthorhombic,-1.683,0.202,0.006,18.061,0.000,5.599,6.273,10.283,90.0,90.0,90.0,-9.227
MoTmO3,Mo,Tm,FALSE,3,3,0.69,0.88,cubic,-1.335,1.601,0.599,14.774,0.000,4.196,4.196,4.196,90.0,90.0,90.0,-5.379
MoUO3,Mo,U,FALSE,3,3,0.69,1.03,cubic,-1.748,1.190,1.200,16.178,0.000,4.325,4.325,4.325,90.0,90.0,90.0,0.006
MoVO3,Mo,V,FALSE,3,3,0.69,0.64,cubic,-1.249,1.036,1.001,10.978,0.000,3.800,3.800,3.800,90.0,90.0,90.0,0.960
MoWO3,Mo,W,FALSE,4,2,0.65,0.66,cubic,-1.019,0.938,0.883,12.261,0.000,3.943,3.943,3.943,90.0,90.0,90.0,2.596
MoYO3,Mo,Y,FALSE,3,3,0.69,0.90,cubic,-1.168,1.735,0.600,15.662,0.000,4.278,4.278,4.278,90.0,90.0,90.0,-4.275
MoYbO3,Mo,Yb,FALSE,3,3,0.69,0.87,orthorhombic,-2.450,0.308,0.398,12.850,0.000,5.502,5.784,8.076,90.0,90.0,90.0,-10.578
MoZnO3,Mo,Zn,FALSE,4,2,0.65,0.74,cubic,-0.400,1.567,0.520,10.832,0.000,3.783,3.783,3.783,90.0,90.0,90.0,-5.452
MoZrO3,Mo,Zr,FALSE,3,3,0.69,0.72,cubic,-1.702,1.124,0.800,13.977,0.000,4.119,4.119,4.119,90.0,90.0,90.0,-0.740
NaAcO3,Na,Ac,FALSE,element not in BV,element not in BV,1.39,1.12,orthorhombic,-2.018,0.352,0.100,16.191,0.000,6.063,6.228,8.575,90.0,90.0,90.0,-0.778
NaAgO3,Na,Ag,FALSE,not balanced,not balanced,1.39,0.95,cubic,-0.237,0.512,-,13.187,0.000,4.040,4.040,4.040,90.0,90.0,90.0,-2.055
NaAlO3,Na,Al,FALSE,not balanced,not balanced,1.39,0.54,cubic,-1.961,0.331,-,10.117,0.000,3.698,3.698,3.698,90.0,90.0,90.0,-1.269
NaAsO3,Na,As,FALSE,1,5,1.39,0.46,orthorhombic,-1.530,0.230,-,9.703,1.080,5.156,5.159,7.296,90.0,90.0,90.0,1.226
NaAuO3,Na,Au,FALSE,element not in BV,element not in BV,1.39,0.93,orthorhombic,-0.578,0.228,-,11.449,0.000,5.357,5.589,7.649,90.0,90.0,90.0,-2.008
NaBO3,Na,B,FALSE,not balanced,not balanced,1.39,0.27,cubic,-0.987,1.053,-,7.561,0.000,3.356,3.356,3.356,90.0,90.0,90.0,-3.806
NaBaO3,Na,Ba,FALSE,not balanced,not balanced,1.39,1.35,cubic,-0.871,0.933,-,19.061,0.000,4.568,4.568,4.568,90.0,90.0,90.0,-2.008
NaBeO3,Na,Be,FALSE,not balanced,not balanced,1.39,0.45,cubic,-1.096,0.717,-,8.555,0.000,3.497,3.497,3.497,90.0,90.0,90.0,-2.864
NaBiO3,Na,Bi,FALSE,1,5,1.39,0.76,orthorhombic,-1.407,0.048,-,13.512,0.736,5.705,5.819,8.140,90.0,90.0,90.0,0.270
NaCaO3,Na,Ca,FALSE,not balanced,not balanced,1.39,1.00,orthorhombic,-1.719,0.186,-,13.425,0.000,5.992,6.287,7.127,90.0,90.0,90.0,-6.274
NaCdO3,Na,Cd,FALSE,not balanced,not balanced,1.39,0.95,cubic,-0.445,0.676,-,14.242,0.000,4.145,4.145,4.145,90.0,90.0,90.0,-4.290
NaCeO3,Na,Ce,FALSE,not balanced,not balanced,1.39,0.94,cubic,-1.784,0.556,0.400,19.270,0.000,4.584,4.584,4.584,90.0,90.0,90.0,-1.582
NaCoO3,Na,Co,FALSE,not balanced,not balanced,1.39,0.63,orthorhombic,-1.033,0.269,0.785,10.223,0.000,5.230,5.305,7.370,90.0,90.0,90.0,0.679
NaCrO3,Na,Cr,FALSE,1,5,1.39,0.49,orthorhombic,-1.743,0.270,0.200,9.961,0.000,5.151,5.228,7.398,90.0,90.0,90.0,-12.261
NaCsO3,Na,Cs,FALSE,not balanced,not balanced,1.39,1.67,cubic,-0.125,1.051,-,16.632,0.000,4.365,4.365,4.365,90.0,90.0,90.0,-1.460
NaCuO3,Na,Cu,FALSE,not balanced,not balanced,1.39,0.68,orthorhombic,-0.569,0.439,-,10.018,0.000,5.154,5.286,7.355,90.0,90.0,90.0,-1.586
NaDyO3,Na,Dy,FALSE,not balanced,not balanced,1.39,0.99,orthorhombic,-2.314,0.191,0.000,13.022,2.472,6.017,6.145,7.043,90.0,90.0,90.0,-1.337
NaErO3,Na,Er,FALSE,not balanced,not balanced,1.39,0.89,rhombohedral,-2.109,0.434,0.400,14.272,0.000,5.811,5.811,5.811,61.3,61.3,61.3,-1.302
NaEuO3,Na,Eu,FALSE,not balanced,not balanced,1.39,1.06,orthorhombic,-1.860,0.125,0.204,13.686,0.000,6.164,6.262,7.092,90.0,90.0,90.0,-4.835
NaFeO3,Na,Fe,FALSE,not balanced,not balanced,1.39,0.67,cubic,-1.299,0.183,0.896,10.453,0.000,3.739,3.739,3.739,90.0,90.0,90.0,-0.436
NaGaO3,Na,Ga,FALSE,not balanced,not balanced,1.39,0.62,orthorhombic,-1.251,0.465,-,11.284,0.000,5.020,5.836,7.703,90.0,90.0,90.0,-2.013
NaGdO3,Na,Gd,FALSE,not balanced,not balanced,1.39,0.94,cubic,-1.978,0.507,0.400,17.150,0.000,4.410,4.410,4.410,90.0,90.0,90.0,-1.291
NaGeO3,Na,Ge,FALSE,not balanced,not balanced,1.39,0.63,cubic,-1.561,0.254,-,10.408,0.000,3.733,3.733,3.733,90.0,90.0,90.0,-0.339
NaHfO3,Na,Hf,FALSE,not balanced,not balanced,1.39,0.71,orthorhombic,-2.749,0.088,0.200,12.930,0.000,5.610,5.751,8.015,90.0,90.0,90.0,0.008
NaHgO3,Na,Hg,FALSE,not balanced,not balanced,1.39,1.11,cubic,-0.215,0.593,-,14.557,0.000,4.175,4.175,4.175,90.0,90.0,90.0,-1.944
NaHoO3,Na,Ho,FALSE,not balanced,not balanced,1.39,0.90,orthorhombic,-2.324,0.192,0.000,12.936,2.546,6.024,6.133,7.003,90.0,90.0,90.0,-1.332
NaInO3,Na,In,FALSE,not balanced,not balanced,1.39,0.80,cubic,-1.002,0.554,-,14.286,0.000,4.149,4.149,4.149,90.0,90.0,90.0,-1.883
NaIrO3,Na,Ir,FALSE,1,5,1.39,0.57,orthorhombic,-1.266,0.066,0.013,10.720,0.000,5.267,5.398,7.541,90.0,90.0,90.0,1.523
NaKO3,Na,K,FALSE,not balanced,not balanced,1.39,1.38,cubic,0.328,1.510,-,17.912,0.000,4.474,4.474,4.474,90.0,90.0,90.0,-6.683
NaLaO3,Na,La,FALSE,not balanced,not balanced,1.39,1.03,orthorhombic,-2.306,0.130,0.000,14.794,2.633,6.247,6.397,7.404,90.0,90.0,90.0,-1.372
NaLiO3,Na,Li,FALSE,not balanced,not balanced,1.39,0.76,orthorhombic,-1.182,0.093,-,9.690,1.762,5.680,5.764,5.919,90.0,90.0,90.0,-3.867
NaLuO3,Na,Lu,FALSE,not balanced,not balanced,1.39,0.86,rhombohedral,-2.162,0.399,0.400,13.882,0.000,5.762,5.762,5.762,61.2,61.2,61.2,-1.171
NaMgO3,Na,Mg,FALSE,not balanced,not balanced,1.39,0.72,cubic,-1.127,0.678,-,11.912,0.000,3.905,3.905,3.905,90.0,90.0,90.0,-1.858
NaMnO3,Na,Mn,FALSE,not balanced,not balanced,1.39,0.62,orthorhombic,-1.488,0.245,0.400,10.145,0.000,5.203,5.267,7.404,90.0,90.0,90.0,-0.726
NaMoO3,Na,Mo,FALSE,1,5,1.39,0.61,cubic,-2.251,0.013,0.000,11.739,0.000,3.886,3.886,3.886,90.0,90.0,90.0,4.698
Na2O3,Na,Na,FALSE,not balanced,not balanced,1.39,1.02,orthorhombic,-0.895,0.265,-,12.553,0.000,5.658,6.457,6.872,90.0,90.0,90.0,-10.002
NaNbO3,Na,Nb,TRUE,1,5,1.39,0.64,orthorhombic,-2.686,0.019,0.000,11.887,2.204,5.470,5.568,7.806,90.0,90.0,90.0,5.195
NaNdO3,Na,Nd,FALSE,not balanced,not balanced,1.39,0.98,cubic,-1.853,0.553,0.400,18.518,0.000,4.524,4.524,4.524,90.0,90.0,90.0,-1.499
NaNiO3,Na,Ni,FALSE,not balanced,not balanced,1.39,0.59,orthorhombic,-0.701,0.425,0.600,10.201,0.000,5.376,5.587,6.793,90.0,90.0,90.0,-1.502
NaNpO3,Na,Np,FALSE,element not in BV,element not in BV,1.39,0.86,orthorhombic,-2.851,-0.091,0.400,13.777,1.898,5.655,5.937,8.208,90.0,90.0,90.0,2.658
NaOsO3,Na,Os,FALSE,element not in BV,element not in BV,1.39,0.57,orthorhombic,-1.502,-0.021,-0.004,10.816,0.000,5.312,5.389,7.557,90.0,90.0,90.0,3.014
NaPaO3,Na,Pa,TRUE,element not in BV,element not in BV,1.39,0.91,orthorhombic,-2.915,-0.316,0.000,14.555,4.349,5.794,6.010,8.359,90.0,90.0,90.0,5.960
NaPbO3,Na,Pb,FALSE,not balanced,not balanced,1.39,0.99,orthorhombic,-1.065,0.189,-,13.156,0.000,5.873,6.047,7.409,90.0,90.0,90.0,-1.440
NaPdO3,Na,Pd,FALSE,not balanced,not balanced,1.39,0.75,orthorhombic,-0.809,0.180,-,10.851,0.000,5.274,5.452,7.547,90.0,90.0,90.0,-1.498
NaPmO3,Na,Pm,FALSE,element not in BV,element not in BV,1.39,0.97,cubic,-1.892,0.526,0.400,18.161,0.000,4.495,4.495,4.495,90.0,90.0,90.0,-1.436
NaPrO3,Na,Pr,FALSE,not balanced,not balanced,1.39,0.92,cubic,-1.821,0.549,0.400,18.837,0.000,4.550,4.550,4.550,90.0,90.0,90.0,-1.539
NaPtO3,Na,Pt,FALSE,element not in BV,element not in BV,1.39,0.67,orthorhombic,-1.005,0.100,0.200,10.927,0.000,5.277,5.464,7.580,90.0,90.0,90.0,-0.340
NaPuO3,Na,Pu,FALSE,element not in BV,element not in BV,1.39,0.83,orthorhombic,-2.631,-0.084,0.600,13.779,1.196,5.740,5.842,8.219,90.0,90.0,90.0,0.983
NaRbO3,Na,Rb,FALSE,not balanced,not balanced,1.39,1.52,orthorhombic,-0.922,0.248,-,16.952,0.000,5.034,7.329,9.189,90.0,90.0,90.0,-11.583
NaReO3,Na,Re,FALSE,1,5,1.39,0.58,cubic,-1.932,0.007,-0.001,11.534,0.000,3.863,3.863,3.863,90.0,90.0,90.0,4.339
NaRhO3,Na,Rh,FALSE,not balanced,not balanced,1.39,0.61,orthorhombic,-1.139,0.094,0.090,10.640,0.000,5.244,5.389,7.530,90.0,90.0,90.0,0.417
NaRuO3,Na,Ru,FALSE,1,5,1.39,0.57,orthorhombic,-1.416,0.045,0.216,10.729,0.000,5.288,5.377,7.547,90.0,90.0,90.0,2.053
NaSbO3,Na,Sb,FALSE,1,5,1.39,0.60,orthorhombic,-1.832,0.090,-,11.477,1.647,5.420,5.486,7.719,90.0,90.0,90.0,2.765
NaScO3,Na,Sc,FALSE,not balanced,not balanced,1.39,0.75,orthorhombic,-2.136,0.353,0.400,12.777,0.000,5.545,5.804,7.941,90.0,90.0,90.0,-1.205
NaSiO3,Na,Si,FALSE,not balanced,not balanced,1.39,0.40,orthorhombic,-2.220,0.289,-,8.778,0.000,4.989,4.990,7.053,90.0,90.0,90.0,0.213
NaSmO3,Na,Sm,FALSE,not balanced,not balanced,1.39,0.96,orthorhombic,-2.245,0.185,0.000,13.500,2.744,6.111,6.245,7.075,90.0,90.0,90.0,-1.399
NaSnO3,Na,Sn,FALSE,not balanced,not balanced,1.39,0.69,orthorhombic,-1.560,0.241,-,12.555,0.000,5.585,5.682,7.913,90.0,90.0,90.0,-0.421
NaSrO3,Na,Sr,FALSE,not balanced,not balanced,1.39,1.18,cubic,-0.869,0.960,-,18.606,0.000,4.531,4.531,4.531,90.0,90.0,90.0,-6.928
NaTaO3,Na,Ta,TRUE,1,5,1.39,0.64,orthorhombic,-2.932,-0.092,0.000,11.773,2.851,5.466,5.534,7.784,90.0,90.0,90.0,6.194
NaTbO3,Na,Tb,FALSE,not balanced,not balanced,1.39,0.84,orthorhombic,-2.171,0.198,0.000,13.147,2.583,6.023,6.163,7.084,90.0,90.0,90.0,-1.346
NaTcO3,Na,Tc,FALSE,element not in BV,element not in BV,1.39,0.60,cubic,-1.843,-0.249,-0.001,11.372,0.000,3.845,3.845,3.845,90.0,90.0,90.0,3.629
NaTeO3,Na,Te,FALSE,not balanced,not balanced,1.39,0.77,orthorhombic,-1.489,0.082,-,12.398,0.000,5.546,5.652,7.911,90.0,90.0,90.0,1.619
NaThO3,Na,Th,FALSE,not balanced,not balanced,1.39,0.94,orthorhombic,-2.805,0.271,0.200,15.727,0.000,5.963,6.182,8.532,90.0,90.0,90.0,-0.084
NaTiO3,Na,Ti,FALSE,not balanced,not balanced,1.39,0.71,cubic,-2.459,0.144,0.083,11.577,0.000,3.868,3.868,3.868,90.0,90.0,90.0,-0.301
NaTlO3,Na,Tl,FALSE,not balanced,not balanced,1.39,1.20,cubic,-0.523,0.579,-,15.060,0.000,4.223,4.223,4.223,90.0,90.0,90.0,-2.007
NaTmO3,Na,Tm,FALSE,not balanced,not balanced,1.39,0.96,orthorhombic,-2.141,0.405,0.238,13.584,0.000,5.919,5.986,7.668,90.0,90.0,90.0,-1.205
NaUO3,Na,U,TRUE,1,5,1.39,0.76,orthorhombic,-3.104,0.003,0.200,14.050,3.254,5.726,5.947,8.252,90.0,90.0,90.0,4.350
NaVO3,Na,V,TRUE,1,5,1.39,0.54,tetragonal,-2.261,0.214,0.000,10.687,0.380,3.673,3.673,3.961,90.0,90.0,90.0,2.295
NaWO3,Na,W,TRUE,1,5,1.39,0.62,cubic,-2.380,-0.030,0.000,11.801,0.000,3.893,3.893,3.893,90.0,90.0,90.0,5.438
NaYO3,Na,Y,FALSE,not balanced,not balanced,1.39,0.90,orthorhombic,-2.301,0.190,0.000,13.021,2.772,6.060,6.126,7.015,90.0,90.0,90.0,-1.333
NaYbO3,Na,Yb,FALSE,not balanced,not balanced,1.39,0.95,orthorhombic,-1.834,0.196,-,12.925,0.000,5.996,6.187,6.968,90.0,90.0,90.0,-5.591
NaZnO3,Na,Zn,FALSE,not balanced,not balanced,1.39,0.74,cubic,-0.710,0.576,-,11.393,0.000,3.848,3.848,3.848,90.0,90.0,90.0,-1.851
NaZrO3,Na,Zr,FALSE,not balanced,not balanced,1.39,0.72,orthorhombic,-2.590,0.192,0.200,13.283,0.000,5.659,5.817,8.070,90.0,90.0,90.0,-0.312
NbAcO3,Nb,Ac,FALSE,element not in BV,element not in BV,0.77,1.12,rhombohedral,-2.769,0.268,0.000,17.012,0.448,6.029,6.029,6.029,64.5,64.5,64.5,-1.015
NbAgO3,Nb,Ag,FALSE,3,3,0.72,0.75,orthorhombic,-1.870,0.182,0.000,14.047,1.521,5.571,5.888,8.565,90.0,90.0,90.0,-8.804
NbAlO3,Nb,Al,FALSE,3,3,0.72,0.54,cubic,-2.135,0.746,0.377,9.661,0.000,3.642,3.642,3.642,90.0,90.0,90.0,3.221
NbAsO3,Nb,As,FALSE,3,3,0.72,0.58,cubic,-0.668,1.556,0.540,11.909,0.000,3.905,3.905,3.905,90.0,90.0,90.0,-0.092
NbAuO3,Nb,Au,FALSE,element not in BV,element not in BV,0.77,0.93,cubic,0.091,2.120,0.446,13.348,0.000,4.056,4.056,4.056,90.0,90.0,90.0,-8.792
NbBO3,Nb,B,FALSE,5,1,0.74,0.27,cubic,-1.261,1.312,0.281,7.859,0.000,3.400,3.400,3.400,90.0,90.0,90.0,2.549
NbBaO3,Nb,Ba,FALSE,not balanced,not balanced,0.77,1.35,orthorhombic,-2.685,0.332,0.000,17.848,0.000,5.693,6.538,9.589,90.0,90.0,90.0,-16.578
NbBeO3,Nb,Be,FALSE,4,2,0.79,0.45,cubic,-1.967,0.851,0.017,7.899,0.000,3.405,3.405,3.405,90.0,90.0,90.0,1.975
NbBiO3,Nb,Bi,FALSE,1,5,0.79,0.76,cubic,-0.367,1.888,0.598,15.700,0.000,4.282,4.282,4.282,90.0,90.0,90.0,-8.918
NbCaO3,Nb,Ca,FALSE,not balanced,not balanced,0.77,1.00,rhombohedral,-2.685,0.346,0.200,14.880,0.593,6.078,6.078,6.078,57.3,57.3,57.3,-
NbCdO3,Nb,Cd,FALSE,not balanced,not balanced,0.77,0.95,orthorhombic,-1.867,0.385,0.169,12.805,0.000,5.648,5.876,7.718,90.0,90.0,90.0,-9.563
NbCeO3,Nb,Ce,FALSE,3,3,0.72,1.01,cubic,-0.998,2.090,0.401,18.336,0.000,4.509,4.509,4.509,90.0,90.0,90.0,-9.862
NbCoO3,Nb,Co,FALSE,3,3,0.72,0.61,cubic,-1.027,1.247,0.146,9.741,0.000,3.652,3.652,3.652,90.0,90.0,90.0,0.373
NbCrO3,Nb,Cr,FALSE,3,3,0.72,0.62,orthorhombic,-2.265,0.223,1.000,10.911,0.000,5.348,5.687,7.174,90.0,90.0,90.0,0.740
NbCsO3,Nb,Cs,FALSE,not balanced,not balanced,0.77,1.67,orthorhombic,-2.574,0.102,0.000,21.793,3.412,6.001,6.281,11.563,90.0,90.0,90.0,-
NbCuO3,Nb,Cu,FALSE,3,3,0.72,0.54,rhombohedral,-2.069,0.118,0.000,12.309,1.077,5.030,5.226,5.754,77.3,109.0,68.7,-1.211
NbDyO3,Nb,Dy,FALSE,3,3,0.72,0.91,cubic,-1.537,1.678,0.400,15.344,0.000,4.249,4.249,4.249,90.0,90.0,90.0,-
NbErO3,Nb,Er,FALSE,3,3,0.72,0.89,cubic,-1.634,1.598,0.400,14.812,0.000,4.200,4.200,4.200,90.0,90.0,90.0,-5.748
NbEuO3,Nb,Eu,FALSE,3,3,0.72,0.95,orthorhombic,-2.865,0.346,-0.003,14.096,0.000,5.680,6.069,8.177,90.0,90.0,90.0,-12.689
NbFeO3,Nb,Fe,FALSE,3,3,0.72,0.65,cubic,-1.065,1.278,1.371,10.916,0.000,3.793,3.793,3.793,90.0,90.0,90.0,-0.263
NbGaO3,Nb,Ga,FALSE,3,3,0.72,0.62,orthorhombic,-1.916,0.429,0.400,10.560,0.000,5.317,5.486,7.241,90.0,90.0,90.0,-0.130
NbGdO3,Nb,Gd,FALSE,3,3,0.72,0.94,cubic,-1.426,1.767,0.401,15.942,0.000,4.304,4.304,4.304,90.0,90.0,90.0,-7.275
NbGeO3,Nb,Ge,FALSE,2,4,0.79,0.53,cubic,-1.053,1.213,0.557,10.890,0.000,3.790,3.790,3.790,90.0,90.0,90.0,1.286
NbHfO3,Nb,Hf,FALSE,2,4,0.79,0.71,cubic,-2.125,1.041,0.600,13.363,0.000,4.058,4.058,4.058,90.0,90.0,90.0,-0.260
NbHgO3,Nb,Hg,FALSE,not balanced,not balanced,0.77,1.11,orthorhombic,-1.753,0.324,0.000,16.402,0.000,5.568,6.263,9.406,90.0,90.0,90.0,-10.886
NbHoO3,Nb,Ho,FALSE,3,3,0.72,0.90,cubic,-1.587,1.637,0.400,15.056,0.000,4.222,4.222,4.222,90.0,90.0,90.0,-6.107
NbInO3,Nb,In,FALSE,3,3,0.72,0.80,orthorhombic,-1.781,0.520,0.362,12.555,0.000,5.641,5.915,7.525,90.0,90.0,90.0,-5.317
NbIrO3,Nb,Ir,FALSE,2,4,0.79,0.63,cubic,-0.359,1.782,0.375,11.999,0.000,3.915,3.915,3.915,90.0,90.0,90.0,-3.832
NbKO3,Nb,K,FALSE,not balanced,not balanced,0.77,1.38,rhombohedral,-2.079,0.618,0.000,17.934,2.177,6.353,6.353,6.353,59.5,59.5,59.5,-19.044