Chemical formula,A,B,In literature,Valence A,Valence B,Radius A [ang],Radius B [ang],Lowest distortion,Formation energy [eV/atom],Stability [eV/atom],Magnetic moment [mu_B],Volume per atom [A^3/atom],Band gap [eV],a [ang],b [ang],c [ang],alpha [deg],beta [deg],gamma [deg],Vacancy energy [eV/O atom]
HfNpO3,Hf,Np,FALSE,element not in BV,element not in BV,0.83,0.86,orthorhombic,-3.220,0.248,0.851,13.969,0.000,6.072,6.381,7.210,90.0,90.0,90.0,-0.117
HfOsO3,Hf,Os,FALSE,element not in BV,element not in BV,0.83,0.57,cubic,-0.886,1.766,0.001,11.834,0.000,3.897,3.897,3.897,90.0,90.0,90.0,-2.885
HfPaO3,Hf,Pa,FALSE,element not in BV,element not in BV,0.83,0.91,cubic,-1.662,1.572,0.533,16.863,0.000,4.385,4.385,4.385,90.0,90.0,90.0,0.035
HfPbO3,Hf,Pb,FALSE,not balanced,not balanced,0.83,0.99,orthorhombic,-2.518,0.314,0.000,16.346,1.805,5.784,5.931,9.531,90.0,90.0,90.0,-
HfPdO3,Hf,Pd,FALSE,4,2,0.83,0.86,cubic,-0.881,1.682,0.001,12.094,0.000,3.925,3.925,3.925,90.0,90.0,90.0,-1.971
HfPmO3,Hf,Pm,FALSE,element not in BV,element not in BV,0.83,0.97,orthorhombic,-3.245,0.321,0.000,13.845,0.000,6.000,6.078,7.593,90.0,90.0,90.0,-0.249
HfPrO3,Hf,Pr,FALSE,not balanced,not balanced,0.83,0.92,orthorhombic,-3.210,0.305,0.000,14.228,0.000,6.039,6.197,7.604,90.0,90.0,90.0,-2.349
HfPtO3,Hf,Pt,FALSE,element not in BV,element not in BV,0.83,0.67,cubic,-0.671,1.870,0.008,12.680,0.000,3.987,3.987,3.987,90.0,90.0,90.0,-4.457
HfPuO3,Hf,Pu,FALSE,element not in BV,element not in BV,0.83,0.83,orthorhombic,-3.279,0.298,1.139,13.818,0.000,6.102,6.245,7.253,90.0,90.0,90.0,0.432
HfRbO3,Hf,Rb,FALSE,not balanced,not balanced,0.83,1.52,tetragonal,-2.179,0.605,0.122,15.221,0.000,3.297,3.297,7.003,90.0,90.0,90.0,-19.068
HfReO3,Hf,Re,FALSE,4,2,0.83,0.63,cubic,-1.107,1.709,0.068,11.956,0.000,3.910,3.910,3.910,90.0,90.0,90.0,-2.156
HfRhO3,Hf,Rh,FALSE,not balanced,not balanced,0.83,0.61,cubic,-1.055,1.560,0.000,11.687,0.000,3.881,3.881,3.881,90.0,90.0,90.0,-1.995
HfRuO3,Hf,Ru,FALSE,4,2,0.83,0.68,cubic,-1.117,1.566,0.000,11.560,0.000,3.866,3.866,3.866,90.0,90.0,90.0,-2.171
HfSbO3,Hf,Sb,FALSE,not balanced,not balanced,0.83,0.68,cubic,-0.874,1.956,0.350,14.266,0.000,4.147,4.147,4.147,90.0,90.0,90.0,-3.967
HfScO3,Hf,Sc,FALSE,not balanced,not balanced,0.83,0.75,cubic,-2.424,1.207,0.019,12.225,0.000,3.939,3.939,3.939,90.0,90.0,90.0,-2.521
HfSiO3,Hf,Si,FALSE,2,4,0.83,0.40,cubic,-1.854,1.383,0.097,9.460,0.000,3.616,3.616,3.616,90.0,90.0,90.0,2.102
HfSmO3,Hf,Sm,FALSE,4,2,0.83,1.22,cubic,-1.688,1.890,0.176,16.560,0.000,4.359,4.359,4.359,90.0,90.0,90.0,-8.751
HfSnO3,Hf,Sn,FALSE,not balanced,not balanced,0.83,0.69,orthorhombic,-2.458,0.461,0.000,14.982,0.974,5.842,6.010,8.534,90.0,90.0,90.0,0.334
HfSrO3,Hf,Sr,FALSE,4,2,0.83,1.18,orthorhombic,-3.325,0.328,0.000,15.858,3.160,5.787,5.903,9.284,90.0,90.0,90.0,-12.667
HfTaO3,Hf,Ta,FALSE,4,2,0.83,0.72,cubic,-1.910,1.270,0.318,12.648,0.000,3.984,3.984,3.984,90.0,90.0,90.0,0.687
HfTbO3,Hf,Tb,FALSE,4,2,0.83,0.92,cubic,-1.777,1.730,0.167,15.473,0.000,4.261,4.261,4.261,90.0,90.0,90.0,-7.388
HfTcO3,Hf,Tc,FALSE,element not in BV,element not in BV,0.83,0.60,cubic,-1.263,1.551,0.204,11.728,0.000,3.885,3.885,3.885,90.0,90.0,90.0,-1.507
HfTeO3,Hf,Te,FALSE,4,2,0.83,0.97,cubic,-0.593,2.100,0.346,14.796,0.000,4.198,4.198,4.198,90.0,90.0,90.0,-4.294
HfThO3,Hf,Th,FALSE,not balanced,not balanced,0.83,0.94,cubic,-1.986,1.708,0.351,18.638,0.000,4.534,4.534,4.534,90.0,90.0,90.0,-0.740
HfTiO3,Hf,Ti,FALSE,2,4,0.83,0.61,cubic,-2.353,1.048,0.004,11.241,0.000,3.831,3.831,3.831,90.0,90.0,90.0,2.226
HfTlO3,Hf,Tl,FALSE,not balanced,not balanced,0.83,1.20,orthorhombic,-2.226,0.422,0.000,14.627,0.000,6.019,6.043,8.043,90.0,90.0,90.0,-3.546
HfTmO3,Hf,Tm,FALSE,4,2,0.83,1.03,cubic,-2.136,1.557,0.145,14.389,0.000,4.159,4.159,4.159,90.0,90.0,90.0,-5.651
HfUO3,Hf,U,FALSE,4,2,0.83,1.03,orthorhombic,-3.128,0.321,0.631,14.155,0.000,6.015,6.445,7.303,90.0,90.0,90.0,-3.025
HfVO3,Hf,V,FALSE,4,2,0.83,0.79,cubic,-2.057,1.151,0.534,11.012,0.000,3.804,3.804,3.804,90.0,90.0,90.0,1.959
HfWO3,Hf,W,FALSE,4,2,0.83,0.66,cubic,-1.419,1.538,0.291,12.201,0.000,3.937,3.937,3.937,90.0,90.0,90.0,-1.079
HfYO3,Hf,Y,FALSE,not balanced,not balanced,0.83,0.90,cubic,-1.942,1.689,0.162,15.171,0.000,4.233,4.233,4.233,90.0,90.0,90.0,-6.841
HfYbO3,Hf,Yb,FALSE,not balanced,not balanced,0.83,0.95,orthorhombic,-3.543,0.272,0.000,12.940,3.864,5.539,5.697,8.202,90.0,90.0,90.0,-7.385
HfZnO3,Hf,Zn,FALSE,4,2,0.83,0.74,cubic,-1.546,1.417,0.000,10.672,0.000,3.765,3.765,3.765,90.0,90.0,90.0,-1.354
HfZrO3,Hf,Zr,FALSE,not balanced,not balanced,0.83,0.72,cubic,-2.154,1.258,0.339,13.884,0.000,4.110,4.110,4.110,90.0,90.0,90.0,1.912
HgAcO3,Hg,Ac,FALSE,element not in BV,element not in BV,1.14,1.12,cubic,-1.292,0.680,0.000,19.064,0.000,4.568,4.568,4.568,90.0,90.0,90.0,-2.886
HgAgO3,Hg,Ag,FALSE,not balanced,not balanced,1.14,0.95,orthorhombic,-0.118,0.176,-,12.645,0.000,5.544,5.707,7.993,90.0,90.0,90.0,-1.923
HgAlO3,Hg,Al,FALSE,not balanced,not balanced,1.14,0.54,orthorhombic,-1.616,0.198,-,10.498,0.000,5.376,5.383,7.256,90.0,90.0,90.0,-0.662
HgAsO3,Hg,As,FALSE,1,5,1.19,0.46,rhombohedral,-0.832,0.354,-,11.830,0.000,5.540,5.540,5.540,59.3,59.3,59.3,1.280
HgAuO3,Hg,Au,FALSE,element not in BV,element not in BV,1.14,0.93,orthorhombic,-0.172,0.150,-,12.822,0.000,5.580,5.691,8.075,90.0,90.0,90.0,-1.527
HgBO3,Hg,B,FALSE,not balanced,not balanced,1.14,0.27,cubic,-0.352,1.173,-,8.704,0.000,3.517,3.517,3.517,90.0,90.0,90.0,-2.130
HgBaO3,Hg,Ba,FALSE,not balanced,not balanced,1.14,1.35,orthorhombic,-1.026,0.427,-,18.501,0.000,6.532,6.572,8.620,90.0,90.0,90.0,-7.170
HgBeO3,Hg,Be,FALSE,not balanced,not balanced,1.14,0.45,cubic,-0.663,0.705,-,9.370,0.000,3.605,3.605,3.605,90.0,90.0,90.0,-2.742
HgBiO3,Hg,Bi,FALSE,1,5,1.19,0.76,rhombohedral,-0.914,0.038,-,14.794,0.000,5.967,5.967,5.967,59.3,59.3,59.3,-0.785
HgCaO3,Hg,Ca,FALSE,not balanced,not balanced,1.14,1.00,cubic,-0.537,1.023,-,15.759,0.000,4.287,4.287,4.287,90.0,90.0,90.0,-4.927
HgCdO3,Hg,Cd,FALSE,not balanced,not balanced,1.14,0.95,cubic,0.012,0.703,-,14.009,0.000,4.122,4.122,4.122,90.0,90.0,90.0,-3.131
HgCeO3,Hg,Ce,FALSE,not balanced,not balanced,1.14,0.94,cubic,-1.161,0.781,-0.002,18.223,0.000,4.500,4.500,4.500,90.0,90.0,90.0,-3.931
HgCoO3,Hg,Co,FALSE,2,4,1.14,0.53,rhombohedral,-0.588,0.220,0.231,10.585,0.000,5.275,5.275,5.275,60.9,60.9,60.9,-1.207
HgCrO3,Hg,Cr,FALSE,1,5,1.19,0.49,orthorhombic,-1.298,0.153,0.400,11.210,0.000,5.426,5.478,7.543,90.0,90.0,90.0,0.364
HgCsO3,Hg,Cs,FALSE,not balanced,not balanced,1.14,1.67,cubic,0.504,1.328,-,17.469,0.000,4.437,4.437,4.437,90.0,90.0,90.0,-2.588
HgCuO3,Hg,Cu,FALSE,not balanced,not balanced,1.14,0.68,orthorhombic,-0.290,0.214,-,10.865,0.000,5.315,5.424,7.538,90.0,90.0,90.0,-1.611
HgDyO3,Hg,Dy,FALSE,not balanced,not balanced,1.14,0.99,cubic,-1.457,0.649,0.233,16.261,0.000,4.332,4.332,4.332,90.0,90.0,90.0,-3.017
HgErO3,Hg,Er,FALSE,not balanced,not balanced,1.14,0.89,cubic,-1.508,0.622,0.228,15.830,0.000,4.294,4.294,4.294,90.0,90.0,90.0,-2.837
HgEuO3,Hg,Eu,FALSE,not balanced,not balanced,1.14,1.06,orthorhombic,-1.240,0.300,-0.032,15.073,0.000,6.050,6.236,7.991,90.0,90.0,90.0,-4.513
HgFeO3,Hg,Fe,FALSE,2,4,1.14,0.59,orthorhombic,-0.880,0.126,0.800,11.153,0.000,5.370,5.438,7.639,90.0,90.0,90.0,-0.324
HgGaO3,Hg,Ga,FALSE,not balanced,not balanced,1.14,0.62,orthorhombic,-1.003,0.229,-,11.389,0.000,5.297,5.496,7.824,90.0,90.0,90.0,-1.619
HgGdO3,Hg,Gd,FALSE,not balanced,not balanced,1.14,0.94,cubic,-1.402,0.677,0.247,16.725,0.000,4.373,4.373,4.373,90.0,90.0,90.0,-3.203
HgGeO3,Hg,Ge,FALSE,2,4,1.14,0.53,rhombohedral,-1.168,0.163,-,10.906,0.264,5.376,5.376,5.376,59.7,59.7,59.7,1.602
HgHfO3,Hg,Hf,FALSE,2,4,1.14,0.71,rhombohedral,-2.418,0.067,0.000,12.975,1.478,5.758,5.758,5.758,58.3,58.3,58.3,0.852
Hg2O3,Hg,Hg,FALSE,not balanced,not balanced,1.14,1.11,cubic,0.247,0.610,-,14.368,0.000,4.157,4.157,4.157,90.0,90.0,90.0,-2.399
HgHoO3,Hg,Ho,FALSE,not balanced,not balanced,1.14,0.90,cubic,-1.483,0.636,0.230,16.029,0.000,4.311,4.311,4.311,90.0,90.0,90.0,-2.919
HgInO3,Hg,In,FALSE,not balanced,not balanced,1.14,0.80,cubic,-0.532,0.573,-,14.187,0.000,4.140,4.140,4.140,90.0,90.0,90.0,-2.562
HgIrO3,Hg,Ir,FALSE,1,5,1.19,0.57,rhombohedral,-0.614,0.207,0.092,11.774,0.000,5.434,5.434,5.434,61.7,61.7,61.7,1.554
HgKO3,Hg,K,FALSE,not balanced,not balanced,1.14,1.38,cubic,0.869,1.699,-,15.936,0.000,4.303,4.303,4.303,90.0,90.0,90.0,-8.554
HgLaO3,Hg,La,FALSE,not balanced,not balanced,1.14,1.03,cubic,-1.320,0.718,0.000,17.727,0.000,4.459,4.459,4.459,90.0,90.0,90.0,-3.253
HgLiO3,Hg,Li,FALSE,not balanced,not balanced,1.14,0.76,cubic,-0.007,0.890,-,10.235,0.000,3.713,3.713,3.713,90.0,90.0,90.0,-4.259
HgLuO3,Hg,Lu,FALSE,not balanced,not balanced,1.14,0.86,cubic,-1.573,0.589,-0.002,15.202,0.000,4.236,4.236,4.236,90.0,90.0,90.0,-2.614
HgMgO3,Hg,Mg,FALSE,not balanced,not balanced,1.14,0.72,cubic,-0.734,0.644,-,11.868,0.000,3.900,3.900,3.900,90.0,90.0,90.0,-3.100
HgMnO3,Hg,Mn,FALSE,2,4,1.14,0.53,orthorhombic,-1.110,0.123,0.600,11.099,0.000,5.379,5.430,7.599,90.0,90.0,90.0,-0.273
HgMoO3,Hg,Mo,FALSE,1,5,1.19,0.61,cubic,-1.403,0.327,0.000,12.426,0.000,3.961,3.961,3.961,90.0,90.0,90.0,3.003
HgNaO3,Hg,Na,FALSE,not balanced,not balanced,1.14,1.02,cubic,0.467,1.275,-,13.277,0.000,4.049,4.049,4.049,90.0,90.0,90.0,-8.197
HgNbO3,Hg,Nb,FALSE,1,5,1.19,0.64,tetragonal,-1.862,0.215,0.000,13.185,0.000,3.985,3.985,4.152,90.0,90.0,90.0,2.488
HgNdO3,Hg,Nd,FALSE,not balanced,not balanced,1.14,0.98,cubic,-1.239,0.817,0.005,17.928,0.000,4.475,4.475,4.475,90.0,90.0,90.0,-3.778
HgNiO3,Hg,Ni,FALSE,2,4,1.14,0.48,orthorhombic,-0.426,0.252,0.410,11.005,0.000,5.384,5.488,7.449,90.0,90.0,90.0,-1.642
HgNpO3,Hg,Np,FALSE,element not in BV,element not in BV,1.14,0.86,orthorhombic,-2.241,0.167,0.600,15.062,0.936,5.870,5.956,8.616,90.0,90.0,90.0,0.632
HgOsO3,Hg,Os,FALSE,element not in BV,element not in BV,1.14,0.57,rhombohedral,-0.716,0.265,0.002,11.702,0.000,5.410,5.410,5.410,62.0,62.0,62.0,1.519
HgPaO3,Hg,Pa,FALSE,element not in BV,element not in BV,1.14,0.91,rhombohedral,-2.174,-0.133,0.000,16.217,0.000,6.126,6.126,6.126,59.9,59.9,59.9,1.965
HgPbO3,Hg,Pb,FALSE,not balanced,not balanced,1.14,0.99,orthorhombic,-0.813,0.038,-,14.023,0.000,5.774,5.816,8.351,90.0,90.0,90.0,-1.599
HgPdO3,Hg,Pd,FALSE,2,4,1.14,0.62,orthorhombic,-0.438,0.087,-,12.040,0.000,5.486,5.599,7.840,90.0,90.0,90.0,-1.285
HgPmO3,Hg,Pm,FALSE,element not in BV,element not in BV,1.14,0.97,cubic,-1.277,0.743,-0.024,17.414,0.000,4.432,4.432,4.432,90.0,90.0,90.0,-3.728
HgPrO3,Hg,Pr,FALSE,not balanced,not balanced,1.14,0.92,cubic,-1.206,0.764,0.013,18.259,0.000,4.503,4.503,4.503,90.0,90.0,90.0,-3.820
HgPtO3,Hg,Pt,FALSE,element not in BV,element not in BV,1.14,0.67,orthorhombic,-0.506,0.120,0.001,12.145,0.462,5.528,5.600,7.847,90.0,90.0,90.0,-0.549
HgPuO3,Hg,Pu,FALSE,element not in BV,element not in BV,1.14,0.83,rhombohedral,-2.166,-0.028,0.800,15.168,1.442,6.063,6.063,6.063,58.4,58.4,58.4,-0.013
HgRbO3,Hg,Rb,FALSE,not balanced,not balanced,1.14,1.52,cubic,0.840,1.658,-,16.149,0.000,4.322,4.322,4.322,90.0,90.0,90.0,-11.188
HgReO3,Hg,Re,FALSE,1,5,1.19,0.58,cubic,-1.079,0.441,0.001,12.206,0.000,3.937,3.937,3.937,90.0,90.0,90.0,3.003
HgRhO3,Hg,Rh,FALSE,2,4,1.14,0.60,rhombohedral,-0.628,0.176,0.200,11.671,0.000,5.430,5.430,5.430,61.4,61.4,61.4,0.407
HgRuO3,Hg,Ru,FALSE,1,5,1.19,0.57,rhombohedral,-0.767,0.175,0.222,11.602,0.000,5.424,5.424,5.424,61.3,61.3,61.3,1.303
HgSbO3,Hg,Sb,FALSE,1,5,1.19,0.60,orthorhombic,-1.057,0.215,-,13.485,0.000,5.694,5.771,8.207,90.0,90.0,90.0,1.819
HgScO3,Hg,Sc,FALSE,not balanced,not balanced,1.14,0.75,orthorhombic,-1.871,0.214,0.200,12.593,0.000,5.518,5.705,8.001,90.0,90.0,90.0,-1.961
HgSiO3,Hg,Si,FALSE,2,4,1.14,0.40,tetragonal,-1.694,0.332,-,10.855,0.000,3.376,3.376,4.762,90.0,90.0,90.0,1.748
HgSmO3,Hg,Sm,FALSE,not balanced,not balanced,1.14,0.96,cubic,-1.320,0.712,0.251,17.223,0.000,4.416,4.416,4.416,90.0,90.0,90.0,-3.464
HgSnO3,Hg,Sn,FALSE,2,4,1.14,0.69,rhombohedral,-1.298,0.056,-,12.864,0.230,5.700,5.700,5.700,59.2,59.2,59.2,0.557
HgSrO3,Hg,Sr,FALSE,not balanced,not balanced,1.14,1.18,cubic,-0.314,1.196,-,17.745,0.000,4.460,4.460,4.460,90.0,90.0,90.0,-5.909
HgTaO3,Hg,Ta,FALSE,1,5,1.19,0.64,cubic,-2.082,0.200,0.000,12.982,0.000,4.019,4.019,4.019,90.0,90.0,90.0,2.814
HgTbO3,Hg,Tb,FALSE,not balanced,not balanced,1.14,0.84,cubic,-1.299,0.663,0.237,16.470,0.000,4.351,4.351,4.351,90.0,90.0,90.0,-3.112
HgTcO3,Hg,Tc,FALSE,element not in BV,element not in BV,1.14,0.60,orthorhombic,-1.027,0.243,0.090,11.898,0.000,5.527,5.542,7.769,90.0,90.0,90.0,2.473
HgTeO3,Hg,Te,FALSE,2,4,1.14,0.97,orthorhombic,-0.813,0.167,-,14.038,0.000,5.765,5.857,8.315,90.0,90.0,90.0,0.164
HgThO3,Hg,Th,FALSE,not balanced,not balanced,1.14,0.94,cubic,-2.094,0.630,-0.116,18.664,0.000,4.536,4.536,4.536,90.0,90.0,90.0,-1.739
HgTiO3,Hg,Ti,FALSE,2,4,1.14,0.61,rhombohedral,-2.038,0.090,0.000,11.512,1.520,5.508,5.508,5.508,58.9,58.9,58.9,1.847
HgTlO3,Hg,Tl,FALSE,not balanced,not balanced,1.14,1.20,cubic,-0.028,0.623,-,14.890,0.000,4.207,4.207,4.207,90.0,90.0,90.0,-2.878
HgTmO3,Hg,Tm,FALSE,not balanced,not balanced,1.14,0.96,cubic,-1.544,0.604,0.227,15.572,0.000,4.270,4.270,4.270,90.0,90.0,90.0,-2.668
HgUO3,Hg,U,FALSE,1,5,1.19,0.76,tetragonal,-2.351,0.165,0.162,16.227,0.000,4.323,4.323,4.341,90.0,90.0,90.0,2.170
HgVO3,Hg,V,FALSE,2,4,1.14,0.58,orthorhombic,-1.579,0.147,0.201,11.274,0.650,5.372,5.384,7.796,90.0,90.0,90.0,1.811
HgWO3,Hg,W,FALSE,1,5,1.19,0.62,cubic,-1.520,0.437,0.000,12.472,0.000,3.966,3.966,3.966,90.0,90.0,90.0,3.652
HgYO3,Hg,Y,FALSE,not balanced,not balanced,1.14,0.90,cubic,-1.430,0.656,0.236,16.545,0.000,4.357,4.357,4.357,90.0,90.0,90.0,-3.068
HgYbO3,Hg,Yb,FALSE,not balanced,not balanced,1.14,0.95,cubic,-0.749,0.836,-,14.477,0.000,4.168,4.168,4.168,90.0,90.0,90.0,-4.225
HgZnO3,Hg,Zn,FALSE,not balanced,not balanced,1.14,0.74,cubic,-0.279,0.562,-,11.689,0.000,3.881,3.881,3.881,90.0,90.0,90.0,-2.447
HgZrO3,Hg,Zr,FALSE,2,4,1.14,0.72,rhombohedral,-2.276,0.086,0.000,13.384,1.717,5.821,5.821,5.821,58.2,58.2,58.2,0.184
HoAcO3,Ho,Ac,FALSE,element not in BV,element not in BV,1.12,1.12,orthorhombic,-3.535,0.196,0.000,17.119,3.620,6.113,6.255,8.953,90.0,90.0,90.0,0.642
HoAgO3,Ho,Ag,FALSE,3,3,1.12,0.75,cubic,-1.406,0.644,0.000,12.913,0.000,4.012,4.012,4.012,90.0,90.0,90.0,-0.655
HoAlO3,Ho,Al,TRUE,3,3,1.12,0.54,orthorhombic,-3.595,-0.025,0.000,10.127,6.137,5.149,5.345,7.360,90.0,90.0,90.0,6.291
HoAsO3,Ho,As,FALSE,3,3,1.12,0.58,cubic,-1.881,0.815,0.000,12.658,0.000,3.985,3.985,3.985,90.0,90.0,90.0,2.079
HoAuO3,Ho,Au,FALSE,element not in BV,element not in BV,1.12,0.93,cubic,-1.264,0.814,0.000,13.665,0.000,4.088,4.088,4.088,90.0,90.0,90.0,-0.745
HoBO3,Ho,B,FALSE,3,3,1.12,0.27,cubic,-2.528,0.797,0.000,8.163,3.049,3.443,3.443,3.443,90.0,90.0,90.0,5.471
HoBaO3,Ho,Ba,FALSE,not balanced,not balanced,1.12,1.35,orthorhombic,-2.840,0.277,0.200,18.294,0.644,6.493,6.782,8.309,90.0,90.0,90.0,-7.927
HoBeO3,Ho,Be,FALSE,not balanced,not balanced,1.12,0.45,tetragonal,-2.804,0.319,0.038,9.466,0.000,3.294,3.294,4.362,90.0,90.0,90.0,-1.024
HoBiO3,Ho,Bi,FALSE,not balanced,not balanced,1.12,0.90,cubic,-1.489,1.185,0.000,16.589,0.000,4.361,4.361,4.361,90.0,90.0,90.0,-
HoCaO3,Ho,Ca,FALSE,not balanced,not balanced,1.12,1.00,cubic,-2.126,1.102,0.200,13.936,0.000,4.115,4.115,4.115,90.0,90.0,90.0,-2.948
HoCdO3,Ho,Cd,FALSE,not balanced,not balanced,1.12,0.95,cubic,-1.570,0.861,0.000,13.618,0.000,4.083,4.083,4.083,90.0,90.0,90.0,-1.109
HoCeO3,Ho,Ce,FALSE,2,4,1.12,0.87,cubic,-2.274,1.423,0.000,18.614,0.000,4.532,4.532,4.532,90.0,90.0,90.0,-3.213
HoCoO3,Ho,Co,TRUE,3,3,1.12,0.61,orthorhombic,-2.540,0.023,0.000,10.662,1.399,5.157,5.558,7.440,90.0,90.0,90.0,2.320
HoCrO3,Ho,Cr,TRUE,3,3,1.12,0.62,orthorhombic,-3.211,-0.033,0.600,11.031,2.474,5.247,5.561,7.561,90.0,90.0,90.0,4.185
HoCsO3,Ho,Cs,FALSE,not balanced,not balanced,1.12,1.67,orthorhombic,-1.949,0.552,0.000,18.203,0.352,5.111,6.032,11.810,90.0,90.0,90.0,-
HoCuO3,Ho,Cu,FALSE,3,3,1.12,0.54,orthorhombic,-2.288,0.051,0.000,10.867,0.000,5.195,5.840,7.163,90.0,90.0,90.0,0.608
HoDyO3,Ho,Dy,FALSE,not balanced,not balanced,1.12,0.99,cubic,-2.875,0.987,0.000,15.432,1.383,4.257,4.257,4.257,90.0,90.0,90.0,0.661
HoErO3,Ho,Er,FALSE,not balanced,not balanced,1.12,0.89,cubic,-2.975,0.910,0.000,14.906,1.680,4.208,4.208,4.208,90.0,90.0,90.0,1.354
HoEuO3,Ho,Eu,FALSE,not balanced,not balanced,1.12,1.06,orthorhombic,-3.100,0.196,0.200,15.195,0.000,5.675,5.788,9.252,90.0,90.0,90.0,-2.101
HoFeO3,Ho,Fe,TRUE,3,3,1.12,0.65,orthorhombic,-2.789,-0.027,1.000,11.170,1.206,5.264,5.587,7.597,90.0,90.0,90.0,3.094
HoGaO3,Ho,Ga,FALSE,3,3,1.12,0.62,orthorhombic,-2.978,0.020,0.000,10.940,4.108,5.239,5.542,7.536,90.0,90.0,90.0,4.388
HoGdO3,Ho,Gd,FALSE,not balanced,not balanced,1.12,0.94,cubic,-2.759,1.074,0.000,16.034,1.071,4.312,4.312,4.312,90.0,90.0,90.0,0.771
HoGeO3,Ho,Ge,FALSE,2,4,1.12,0.53,cubic,-2.193,0.594,0.000,11.500,0.000,3.860,3.860,3.860,90.0,90.0,90.0,2.734
HoHfO3,Ho,Hf,FALSE,2,4,1.12,0.71,cubic,-3.106,0.558,0.000,13.461,0.000,4.068,4.068,4.068,90.0,90.0,90.0,4.459
HoHgO3,Ho,Hg,FALSE,not balanced,not balanced,1.12,1.11,cubic,-1.147,0.972,0.000,14.617,0.000,4.181,4.181,4.181,90.0,90.0,90.0,-1.034
Ho2O3,Ho,Ho,FALSE,not balanced,not balanced,1.12,0.90,cubic,-2.927,0.947,0.000,15.170,1.533,4.233,4.233,4.233,90.0,90.0,90.0,1.256
HoInO3,Ho,In,FALSE,not balanced,not balanced,1.12,0.80,cubic,-2.123,0.736,0.000,13.674,1.521,4.089,4.089,4.089,90.0,90.0,90.0,2.645
HoIrO3,Ho,Ir,FALSE,2,4,1.12,0.63,cubic,-1.620,0.796,0.001,12.273,0.000,3.944,3.944,3.944,90.0,90.0,90.0,-1.028
HoKO3,Ho,K,FALSE,not balanced,not balanced,1.12,1.38,orthorhombic,-2.063,0.451,0.400,17.879,0.000,5.904,5.929,10.216,90.0,90.0,90.0,-4.019
HoLaO3,Ho,La,FALSE,not balanced,not balanced,1.12,1.03,cubic,-2.396,1.397,0.000,18.324,0.000,4.508,4.508,4.508,90.0,90.0,90.0,1.942
HoLiO3,Ho,Li,FALSE,not balanced,not balanced,1.12,0.76,cubic,-2.087,0.531,0.399,9.500,0.000,3.622,3.622,3.622,90.0,90.0,90.0,-1.396
HoLuO3,Ho,Lu,FALSE,not balanced,not balanced,1.12,0.86,cubic,-3.121,0.797,0.000,14.255,2.083,4.146,4.146,4.146,90.0,90.0,90.0,2.495
HoMgO3,Ho,Mg,FALSE,not balanced,not balanced,1.12,0.72,cubic,-2.591,0.534,0.200,10.946,0.000,3.797,3.797,3.797,90.0,90.0,90.0,-1.592
HoMnO3,Ho,Mn,TRUE,3,3,1.12,0.65,orthorhombic,-2.965,0.031,0.800,11.203,0.399,5.257,5.710,7.464,90.0,90.0,90.0,3.421
HoMoO3,Ho,Mo,FALSE,2,4,1.12,0.65,cubic,-2.251,0.655,0.005,12.312,0.000,3.949,3.949,3.949,90.0,90.0,90.0,1.541
HoNaO3,Ho,Na,FALSE,not balanced,not balanced,1.12,1.02,cubic,-1.417,1.100,0.399,11.957,0.000,3.910,3.910,3.910,90.0,90.0,90.0,-2.920
HoNbO3,Ho,Nb,FALSE,2,4,1.12,0.68,cubic,-2.574,0.650,0.000,13.003,0.000,4.021,4.021,4.021,90.0,90.0,90.0,2.995
HoNdO3,Ho,Nd,FALSE,not balanced,not balanced,1.12,0.98,cubic,-2.456,1.291,0.000,17.601,0.331,4.448,4.448,4.448,90.0,90.0,90.0,-2.305
HoNiO3,Ho,Ni,TRUE,3,3,1.12,0.60,orthorhombic,-2.415,0.019,0.200,10.449,0.000,5.143,5.517,7.365,90.0,90.0,90.0,0.995
HoNpO3,Ho,Np,FALSE,element not in BV,element not in BV,1.12,0.86,cubic,-2.547,1.130,0.769,17.052,0.000,4.401,4.401,4.401,90.0,90.0,90.0,2.034
HoOsO3,Ho,Os,FALSE,element not in BV,element not in BV,1.12,0.57,cubic,-1.667,0.793,0.005,12.152,0.000,3.931,3.931,3.931,90.0,90.0,90.0,-0.075
HoPaO3,Ho,Pa,FALSE,element not in BV,element not in BV,1.12,0.91,cubic,-2.360,0.972,0.274,17.757,0.000,4.461,4.461,4.461,90.0,90.0,90.0,2.539
HoPbO3,Ho,Pb,FALSE,2,4,1.12,0.78,cubic,-1.469,1.085,0.000,15.614,0.000,4.274,4.274,4.274,90.0,90.0,90.0,0.529
HoPdO3,Ho,Pd,FALSE,2,4,1.12,0.62,cubic,-1.695,0.502,0.000,12.286,0.000,3.946,3.946,3.946,90.0,90.0,90.0,-0.180
HoPmO3,Ho,Pm,FALSE,element not in BV,element not in BV,1.12,0.97,cubic,-2.547,1.228,0.000,17.103,0.520,4.406,4.406,4.406,90.0,90.0,90.0,-1.720
HoPrO3,Ho,Pr,FALSE,2,4,1.12,0.85,cubic,-2.371,1.354,0.000,18.049,0.000,4.485,4.485,4.485,90.0,90.0,90.0,-2.886
HoPtO3,Ho,Pt,FALSE,element not in BV,element not in BV,1.12,0.67,cubic,-1.529,0.756,0.000,12.861,0.000,4.006,4.006,4.006,90.0,90.0,90.0,-0.642