Chemical formula,A,B,In literature,Valence A,Valence B,Radius A [ang],Radius B [ang],Lowest distortion,Formation energy [eV/atom],Stability [eV/atom],Magnetic moment [mu_B],Volume per atom [A^3/atom],Band gap [eV],a [ang],b [ang],c [ang],alpha [deg],beta [deg],gamma [deg],Vacancy energy [eV/O atom]
RhSrO3,Rh,Sr,FALSE,not balanced,not balanced,0.61,1.18,rhombohedral,-1.560,0.296,0.200,15.873,0.000,6.032,6.032,6.032,61.0,61.0,61.0,-10.669
RhTaO3,Rh,Ta,FALSE,1,5,0.67,0.64,cubic,-1.699,0.648,0.400,12.425,0.000,3.961,3.961,3.961,90.0,90.0,90.0,4.232
RhTbO3,Rh,Tb,FALSE,3,3,0.67,0.92,cubic,-0.863,1.421,0.799,16.037,0.000,4.312,4.312,4.312,90.0,90.0,90.0,-5.957
RhTcO3,Rh,Tc,FALSE,element not in BV,element not in BV,0.61,0.60,cubic,-0.653,0.678,0.366,11.526,0.000,3.863,3.863,3.863,90.0,90.0,90.0,2.708
RhTeO3,Rh,Te,FALSE,not balanced,not balanced,0.61,0.77,cubic,-0.224,0.867,0.448,13.509,0.000,4.072,4.072,4.072,90.0,90.0,90.0,0.556
RhThO3,Rh,Th,FALSE,not balanced,not balanced,0.61,0.94,cubic,-1.555,1.298,0.599,18.402,0.000,4.514,4.514,4.514,90.0,90.0,90.0,-2.589
RhTiO3,Rh,Ti,FALSE,3,3,0.67,0.67,cubic,-1.562,0.695,0.600,11.375,0.000,3.846,3.846,3.846,90.0,90.0,90.0,0.396
RhTlO3,Rh,Tl,FALSE,3,3,0.67,0.89,orthorhombic,-0.616,0.353,0.001,12.748,0.000,5.372,5.500,8.629,90.0,90.0,90.0,-7.142
RhTmO3,Rh,Tm,FALSE,3,3,0.67,0.88,cubic,-1.140,1.292,0.802,15.091,0.000,4.226,4.226,4.226,90.0,90.0,90.0,-5.247
RhUO3,Rh,U,FALSE,1,5,0.67,0.76,cubic,-1.826,0.777,0.200,15.838,0.000,4.294,4.294,4.294,90.0,90.0,90.0,1.610
RhVO3,Rh,V,FALSE,3,3,0.67,0.64,cubic,-1.122,0.692,0.576,10.648,0.000,3.762,3.762,3.762,90.0,90.0,90.0,0.276
RhWO3,Rh,W,FALSE,3,3,0.67,0.66,cubic,-1.155,0.802,0.365,11.861,0.000,3.900,3.900,3.900,90.0,90.0,90.0,4.107
RhYO3,Rh,Y,FALSE,3,3,0.67,0.90,cubic,-1.003,1.368,0.804,15.990,0.000,4.308,4.308,4.308,90.0,90.0,90.0,-5.775
RhYbO3,Rh,Yb,FALSE,3,3,0.67,0.87,orthorhombic,-1.754,0.360,0.000,12.146,0.000,5.663,5.678,7.555,90.0,90.0,90.0,-8.752
RhZnO3,Rh,Zn,FALSE,not balanced,not balanced,0.61,0.74,cubic,-0.016,1.266,0.862,11.062,0.000,3.810,3.810,3.810,90.0,90.0,90.0,-5.935
RhZrO3,Rh,Zr,FALSE,3,3,0.67,0.72,cubic,-1.599,0.892,0.600,13.927,0.000,4.114,4.114,4.114,90.0,90.0,90.0,-0.656
RuAcO3,Ru,Ac,FALSE,element not in BV,element not in BV,0.62,1.12,rhombohedral,-1.999,0.361,0.200,15.776,0.000,5.820,5.820,5.820,66.1,66.1,66.1,-7.459
RuAgO3,Ru,Ag,FALSE,5,1,0.57,1.15,orthorhombic,-0.656,0.209,-0.001,12.837,0.000,5.270,5.493,8.870,90.0,90.0,90.0,-7.277
RuAlO3,Ru,Al,FALSE,not balanced,not balanced,0.62,0.54,cubic,-1.337,0.865,0.966,9.913,0.000,3.673,3.673,3.673,90.0,90.0,90.0,-0.789
RuAsO3,Ru,As,FALSE,not balanced,not balanced,0.62,0.52,cubic,-0.260,1.033,0.763,11.264,0.000,3.833,3.833,3.833,90.0,90.0,90.0,0.531
RuAuO3,Ru,Au,FALSE,element not in BV,element not in BV,0.62,0.93,cubic,0.605,1.458,0.887,13.136,0.000,4.035,4.035,4.035,90.0,90.0,90.0,-1.340
RuBO3,Ru,B,FALSE,3,3,0.68,0.27,cubic,-0.446,1.435,0.048,7.562,0.000,3.356,3.356,3.356,90.0,90.0,90.0,-0.679
RuBaO3,Ru,Ba,FALSE,not balanced,not balanced,0.62,1.35,rhombohedral,-1.763,0.261,0.400,18.194,0.747,6.197,6.197,6.197,63.7,63.7,63.7,-12.327
RuBeO3,Ru,Be,FALSE,not balanced,not balanced,0.62,0.45,cubic,-0.824,1.122,0.009,7.853,0.000,3.399,3.399,3.399,90.0,90.0,90.0,-3.317
RuBiO3,Ru,Bi,FALSE,not balanced,not balanced,0.62,0.90,cubic,-0.047,1.267,0.722,15.027,0.000,4.220,4.220,4.220,90.0,90.0,90.0,-0.245
RuCaO3,Ru,Ca,FALSE,not balanced,not balanced,0.62,1.00,rhombohedral,-1.775,0.297,0.400,14.292,0.000,5.947,5.947,5.947,58.3,58.3,58.3,-
RuCdO3,Ru,Cd,FALSE,not balanced,not balanced,0.62,0.95,cubic,0.421,1.675,0.958,13.612,0.000,4.083,4.083,4.083,90.0,90.0,90.0,-8.463
RuCeO3,Ru,Ce,FALSE,2,4,0.68,0.87,orthorhombic,-1.915,0.415,0.002,14.222,0.000,5.797,5.900,8.318,90.0,90.0,90.0,-7.543
RuCoO3,Ru,Co,FALSE,2,4,0.68,0.53,cubic,-0.204,1.056,0.945,9.821,0.000,3.662,3.662,3.662,90.0,90.0,90.0,-2.148
RuCrO3,Ru,Cr,FALSE,2,4,0.68,0.55,cubic,-0.791,1.020,1.344,10.888,0.000,3.790,3.790,3.790,90.0,90.0,90.0,-0.858
RuCsO3,Ru,Cs,FALSE,not balanced,not balanced,0.62,1.67,orthorhombic,-1.331,0.089,0.068,18.801,0.000,5.318,5.932,11.920,90.0,90.0,90.0,-
RuCuO3,Ru,Cu,FALSE,5,1,0.57,0.77,cubic,0.071,1.154,0.994,10.235,0.000,3.713,3.713,3.713,90.0,90.0,90.0,-4.047
RuDyO3,Ru,Dy,FALSE,not balanced,not balanced,0.62,0.99,cubic,-0.980,1.515,0.996,15.607,0.000,4.273,4.273,4.273,90.0,90.0,90.0,-6.081
RuErO3,Ru,Er,FALSE,not balanced,not balanced,0.62,0.89,cubic,-1.052,1.466,1.000,15.157,0.000,4.232,4.232,4.232,90.0,90.0,90.0,-5.684
RuEuO3,Ru,Eu,FALSE,not balanced,not balanced,0.62,1.06,rhombohedral,-1.910,0.350,0.400,14.555,0.235,5.794,5.794,5.794,62.6,62.6,62.6,-10.440
RuFeO3,Ru,Fe,FALSE,2,4,0.68,0.59,cubic,-0.434,0.967,1.763,10.889,0.000,3.790,3.790,3.790,90.0,90.0,90.0,-2.602
RuGaO3,Ru,Ga,FALSE,not balanced,not balanced,0.62,0.62,cubic,-0.580,1.040,0.999,11.016,0.000,3.805,3.805,3.805,90.0,90.0,90.0,-2.497
RuGdO3,Ru,Gd,FALSE,not balanced,not balanced,0.62,0.94,cubic,-0.900,1.583,1.000,16.101,0.000,4.318,4.318,4.318,90.0,90.0,90.0,-6.474
RuGeO3,Ru,Ge,FALSE,2,4,0.68,0.53,cubic,-0.637,0.876,0.803,10.506,0.000,3.745,3.745,3.745,90.0,90.0,90.0,0.465
RuHfO3,Ru,Hf,FALSE,2,4,0.68,0.71,cubic,-1.737,0.946,0.798,13.366,0.000,4.058,4.058,4.058,90.0,90.0,90.0,0.708
RuHgO3,Ru,Hg,FALSE,not balanced,not balanced,0.62,1.11,cubic,0.735,1.676,0.892,14.188,0.000,4.140,4.140,4.140,90.0,90.0,90.0,-8.577
RuHoO3,Ru,Ho,FALSE,not balanced,not balanced,0.62,0.90,cubic,-1.017,1.490,0.999,15.378,0.000,4.252,4.252,4.252,90.0,90.0,90.0,-5.882
RuInO3,Ru,In,FALSE,not balanced,not balanced,0.62,0.80,cubic,-0.142,1.350,1.001,13.767,0.000,4.098,4.098,4.098,90.0,90.0,90.0,-5.231
RuIrO3,Ru,Ir,FALSE,2,4,0.68,0.63,cubic,0.074,1.153,0.804,11.822,0.000,3.895,3.895,3.895,90.0,90.0,90.0,-
RuKO3,Ru,K,FALSE,5,1,0.57,1.38,orthorhombic,-1.187,0.265,0.200,18.927,0.273,6.246,6.378,9.503,90.0,90.0,90.0,-7.311
RuLaO3,Ru,La,FALSE,not balanced,not balanced,0.62,1.03,orthorhombic,-2.034,0.401,0.004,14.140,0.000,5.835,5.843,8.296,90.0,90.0,90.0,-7.236
RuLiO3,Ru,Li,FALSE,5,1,0.57,0.76,orthorhombic,-1.264,0.231,0.039,9.005,0.000,5.092,5.402,6.547,90.0,90.0,90.0,-6.885
RuLuO3,Ru,Lu,FALSE,not balanced,not balanced,0.62,0.86,cubic,-1.162,1.389,0.998,14.528,0.000,4.172,4.172,4.172,90.0,90.0,90.0,-5.051
RuMgO3,Ru,Mg,FALSE,not balanced,not balanced,0.62,0.72,cubic,-0.517,1.421,0.572,10.568,0.000,3.753,3.753,3.753,90.0,90.0,90.0,-6.266
RuMnO3,Ru,Mn,FALSE,2,4,0.68,0.53,cubic,-0.630,0.970,1.577,10.730,0.000,3.772,3.772,3.772,90.0,90.0,90.0,-1.922
RuMoO3,Ru,Mo,FALSE,2,4,0.68,0.65,cubic,-0.900,0.830,0.624,11.961,0.000,3.911,3.911,3.911,90.0,90.0,90.0,3.405
RuNaO3,Ru,Na,FALSE,5,1,0.57,1.02,orthorhombic,-1.203,0.259,0.001,12.535,0.000,5.361,5.519,8.472,90.0,90.0,90.0,-13.440
RuNbO3,Ru,Nb,FALSE,2,4,0.68,0.68,cubic,-1.319,0.853,0.613,12.729,0.000,3.993,3.993,3.993,90.0,90.0,90.0,3.675
RuNdO3,Ru,Nd,FALSE,not balanced,not balanced,0.62,0.98,cubic,-0.707,1.674,1.000,17.444,0.000,4.435,4.435,4.435,90.0,90.0,90.0,-7.213
RuNiO3,Ru,Ni,FALSE,2,4,0.68,0.48,cubic,-0.048,1.208,1.157,9.724,0.000,3.650,3.650,3.650,90.0,90.0,90.0,-3.858
RuNpO3,Ru,Np,FALSE,element not in BV,element not in BV,0.62,0.86,cubic,-1.255,1.352,1.293,19.101,0.000,4.571,4.571,4.571,90.0,90.0,90.0,-1.629
RuOsO3,Ru,Os,FALSE,element not in BV,element not in BV,0.62,0.57,cubic,-0.168,0.940,0.575,11.653,0.000,3.877,3.877,3.877,90.0,90.0,90.0,1.504
RuPaO3,Ru,Pa,FALSE,element not in BV,element not in BV,0.62,0.91,cubic,-1.439,0.800,0.616,16.508,0.000,4.354,4.354,4.354,90.0,90.0,90.0,1.936
RuPbO3,Ru,Pb,FALSE,2,4,0.68,0.78,rhombohedral,-0.941,0.347,0.400,15.822,0.216,5.873,5.873,5.873,64.8,64.8,64.8,-
RuPdO3,Ru,Pd,FALSE,2,4,0.68,0.62,cubic,0.264,1.283,0.963,12.053,0.000,3.921,3.921,3.921,90.0,90.0,90.0,-0.891
RuPmO3,Ru,Pm,FALSE,element not in BV,element not in BV,0.62,0.97,cubic,-0.764,1.644,0.999,16.993,0.000,4.396,4.396,4.396,90.0,90.0,90.0,-7.020
RuPrO3,Ru,Pr,FALSE,2,4,0.68,0.85,cubic,-0.655,1.737,1.001,17.870,0.000,4.471,4.471,4.471,90.0,90.0,90.0,-7.374
RuPtO3,Ru,Pt,FALSE,element not in BV,element not in BV,0.62,0.67,cubic,0.296,1.293,0.923,12.332,0.000,3.951,3.951,3.951,90.0,90.0,90.0,-0.609
RuPuO3,Ru,Pu,FALSE,element not in BV,element not in BV,0.62,0.83,cubic,-1.218,1.168,1.476,15.901,0.000,4.300,4.300,4.300,90.0,90.0,90.0,-2.482
RuRbO3,Ru,Rb,FALSE,5,1,0.57,1.52,orthorhombic,-1.330,0.124,0.129,17.622,0.000,5.145,6.021,11.379,90.0,90.0,90.0,-5.944
RuReO3,Ru,Re,FALSE,2,4,0.68,0.63,cubic,-0.559,0.962,0.611,11.763,0.000,3.889,3.889,3.889,90.0,90.0,90.0,2.343
RuRhO3,Ru,Rh,FALSE,2,4,0.68,0.60,cubic,0.036,1.108,0.882,11.671,0.000,3.879,3.879,3.879,90.0,90.0,90.0,-0.138
Ru2O3,Ru,Ru,FALSE,not balanced,not balanced,0.62,0.62,cubic,-0.194,0.946,0.569,11.565,0.000,3.867,3.867,3.867,90.0,90.0,90.0,1.381
RuSbO3,Ru,Sb,FALSE,2,4,0.68,0.68,cubic,-0.406,0.965,0.682,12.925,0.000,4.013,4.013,4.013,90.0,90.0,90.0,0.985
RuScO3,Ru,Sc,FALSE,not balanced,not balanced,0.62,0.75,cubic,-1.259,1.215,1.000,12.862,0.000,4.006,4.006,4.006,90.0,90.0,90.0,-3.854
RuSiO3,Ru,Si,FALSE,2,4,0.68,0.40,cubic,-1.257,0.967,0.800,9.203,0.000,3.583,3.583,3.583,90.0,90.0,90.0,3.678
RuSmO3,Ru,Sm,FALSE,not balanced,not balanced,0.62,0.96,cubic,-0.797,1.623,0.999,16.749,0.000,4.375,4.375,4.375,90.0,90.0,90.0,-6.881
RuSnO3,Ru,Sn,FALSE,2,4,0.68,0.69,cubic,-0.564,0.988,0.800,12.952,0.000,4.016,4.016,4.016,90.0,90.0,90.0,1.963
RuSrO3,Ru,Sr,FALSE,not balanced,not balanced,0.62,1.18,rhombohedral,-1.794,0.230,0.400,16.948,0.598,6.360,6.360,6.360,57.0,57.0,57.0,-11.440
RuTaO3,Ru,Ta,FALSE,2,4,0.68,0.68,cubic,-1.532,0.850,0.602,12.505,0.000,3.969,3.969,3.969,90.0,90.0,90.0,4.265
RuTbO3,Ru,Tb,FALSE,2,4,0.68,0.76,cubic,-0.809,1.553,1.001,15.850,0.000,4.295,4.295,4.295,90.0,90.0,90.0,-6.280
RuTcO3,Ru,Tc,FALSE,element not in BV,element not in BV,0.62,0.60,cubic,-0.545,0.855,0.607,11.648,0.000,3.876,3.876,3.876,90.0,90.0,90.0,2.609
RuTeO3,Ru,Te,FALSE,2,4,0.68,0.97,cubic,-0.102,1.084,0.691,13.960,0.000,4.117,4.117,4.117,90.0,90.0,90.0,0.697
RuThO3,Ru,Th,FALSE,2,4,0.68,0.94,cubic,-1.453,1.469,0.800,18.571,0.000,4.528,4.528,4.528,90.0,90.0,90.0,-2.550
RuTiO3,Ru,Ti,FALSE,2,4,0.68,0.61,cubic,-1.519,0.807,0.798,11.424,0.000,3.851,3.851,3.851,90.0,90.0,90.0,0.353
RuTlO3,Ru,Tl,FALSE,not balanced,not balanced,0.62,1.20,orthorhombic,-0.893,0.215,0.000,16.289,0.000,5.512,5.747,10.285,90.0,90.0,90.0,-7.584
RuTmO3,Ru,Tm,FALSE,not balanced,not balanced,0.62,0.96,cubic,-1.100,1.436,0.998,14.917,0.000,4.209,4.209,4.209,90.0,90.0,90.0,-5.434
RuUO3,Ru,U,FALSE,2,4,0.68,0.89,cubic,-1.637,1.035,0.816,15.924,0.000,4.302,4.302,4.302,90.0,90.0,90.0,1.326
RuVO3,Ru,V,FALSE,2,4,0.68,0.58,cubic,-1.048,0.837,0.876,10.785,0.000,3.778,3.778,3.778,90.0,90.0,90.0,-0.697
RuWO3,Ru,W,FALSE,2,4,0.68,0.66,cubic,-0.985,0.972,0.597,11.986,0.000,3.913,3.913,3.913,90.0,90.0,90.0,3.739
RuYO3,Ru,Y,FALSE,not balanced,not balanced,0.62,0.90,cubic,-0.951,1.523,0.998,15.748,0.000,4.286,4.286,4.286,90.0,90.0,90.0,-6.076
RuYbO3,Ru,Yb,FALSE,not balanced,not balanced,0.62,0.95,orthorhombic,-1.893,0.353,0.042,12.353,0.000,5.422,5.806,7.848,90.0,90.0,90.0,-9.221
RuZnO3,Ru,Zn,FALSE,not balanced,not balanced,0.62,0.74,cubic,-0.039,1.381,1.041,11.060,0.000,3.810,3.810,3.810,90.0,90.0,90.0,-5.640
RuZrO3,Ru,Zr,FALSE,2,4,0.68,0.72,cubic,-1.544,1.015,0.801,13.920,0.000,4.113,4.113,4.113,90.0,90.0,90.0,-0.259
SbAcO3,Sb,Ac,FALSE,element not in BV,element not in BV,0.68,1.12,cubic,-1.305,1.275,0.017,19.939,0.000,4.637,4.637,4.637,90.0,90.0,90.0,-
SbAgO3,Sb,Ag,FALSE,3,3,0.76,0.75,orthorhombic,-0.935,0.331,-,13.442,0.206,5.427,5.695,8.698,90.0,90.0,90.0,-0.728
SbAlO3,Sb,Al,FALSE,3,3,0.76,0.54,tetragonal,-2.282,0.141,-,11.230,1.287,3.592,3.592,4.352,90.0,90.0,90.0,4.409
SbAsO3,Sb,As,FALSE,3,3,0.76,0.58,cubic,-0.813,0.710,-,12.566,0.000,3.975,3.975,3.975,90.0,90.0,90.0,1.577
SbAuO3,Sb,Au,FALSE,element not in BV,element not in BV,0.68,0.93,cubic,-0.150,0.982,-,13.788,0.000,4.100,4.100,4.100,90.0,90.0,90.0,-0.542
SbBO3,Sb,B,FALSE,3,3,0.76,0.27,cubic,-1.100,1.001,-,8.510,1.554,3.491,3.491,3.491,90.0,90.0,90.0,3.328
SbBaO3,Sb,Ba,FALSE,not balanced,not balanced,0.68,1.35,orthorhombic,-2.061,0.256,-,18.596,0.000,6.125,6.313,9.618,90.0,90.0,90.0,-10.432
SbBeO3,Sb,Be,FALSE,not balanced,not balanced,0.68,0.45,cubic,-1.364,0.814,-,8.818,0.000,3.533,3.533,3.533,90.0,90.0,90.0,-1.170
SbBiO3,Sb,Bi,FALSE,not balanced,not balanced,0.68,0.90,cubic,-0.646,0.890,-,16.093,0.000,4.317,4.317,4.317,90.0,90.0,90.0,0.330
SbCaO3,Sb,Ca,FALSE,not balanced,not balanced,0.68,1.00,cubic,-0.947,1.446,-,14.239,0.000,4.145,4.145,4.145,90.0,90.0,90.0,-6.981
SbCdO3,Sb,Cd,FALSE,not balanced,not balanced,0.68,0.95,cubic,-0.404,1.131,-,13.989,0.000,4.120,4.120,4.120,90.0,90.0,90.0,-4.438
SbCeO3,Sb,Ce,FALSE,not balanced,not balanced,0.68,0.94,cubic,-1.326,1.224,-0.092,18.867,0.000,4.552,4.552,4.552,90.0,90.0,90.0,-5.817
SbCoO3,Sb,Co,FALSE,3,3,0.76,0.61,cubic,-0.969,0.549,0.000,10.413,0.194,3.734,3.734,3.734,90.0,90.0,90.0,2.075
SbCrO3,Sb,Cr,FALSE,3,3,0.76,0.62,orthorhombic,-1.891,0.139,0.600,11.448,0.811,5.272,5.679,7.647,90.0,90.0,90.0,2.906
SbCsO3,Sb,Cs,FALSE,not balanced,not balanced,0.68,1.67,cubic,0.496,2.303,-,18.242,0.000,4.501,4.501,4.501,90.0,90.0,90.0,-10.610
SbCuO3,Sb,Cu,FALSE,3,3,0.76,0.54,cubic,-0.731,0.604,-,10.740,0.000,3.773,3.773,3.773,90.0,90.0,90.0,0.258
SbDyO3,Sb,Dy,FALSE,not balanced,not balanced,0.68,0.99,cubic,-1.783,0.932,0.000,15.907,0.000,4.301,4.301,4.301,90.0,90.0,90.0,-2.994
SbErO3,Sb,Er,FALSE,not balanced,not balanced,0.68,0.89,cubic,-1.864,0.874,0.000,15.416,0.000,4.256,4.256,4.256,90.0,90.0,90.0,-2.358
SbEuO3,Sb,Eu,FALSE,not balanced,not balanced,0.68,1.06,orthorhombic,-2.293,0.141,0.000,15.219,0.000,5.830,6.039,8.645,90.0,90.0,90.0,-7.438
SbFeO3,Sb,Fe,FALSE,3,3,0.76,0.65,tetragonal,-1.503,0.151,0.999,12.504,0.906,3.681,3.681,4.615,90.0,90.0,90.0,1.172
SbGaO3,Sb,Ga,FALSE,3,3,0.76,0.62,tetragonal,-1.712,0.129,-,12.241,1.364,3.627,3.627,4.653,90.0,90.0,90.0,2.757
SbGdO3,Sb,Gd,FALSE,not balanced,not balanced,0.68,0.94,cubic,-1.691,1.060,-0.001,16.490,0.000,4.352,4.352,4.352,90.0,90.0,90.0,-3.655
SbGeO3,Sb,Ge,FALSE,not balanced,not balanced,0.68,0.63,cubic,-1.148,0.530,-,11.595,0.000,3.870,3.870,3.870,90.0,90.0,90.0,3.445
SbHfO3,Sb,Hf,FALSE,not balanced,not balanced,0.68,0.71,orthorhombic,-2.438,0.392,0.001,13.398,0.000,5.678,5.750,8.208,90.0,90.0,90.0,3.791
SbHgO3,Sb,Hg,FALSE,not balanced,not balanced,0.68,1.11,orthorhombic,-0.945,0.327,-,14.618,0.000,5.576,5.991,8.752,90.0,90.0,90.0,-4.669
SbHoO3,Sb,Ho,FALSE,not balanced,not balanced,0.68,0.90,cubic,-1.825,0.902,0.000,15.650,0.000,4.277,4.277,4.277,90.0,90.0,90.0,-2.668
SbInO3,Sb,In,FALSE,not balanced,not balanced,0.68,0.80,cubic,-0.954,0.758,-,13.882,0.000,4.110,4.110,4.110,90.0,90.0,90.0,-1.019
SbIrO3,Sb,Ir,FALSE,3,3,0.76,0.68,cubic,-0.531,0.779,0.000,12.498,0.000,3.968,3.968,3.968,90.0,90.0,90.0,-0.040
SbKO3,Sb,K,FALSE,not balanced,not balanced,0.68,1.38,orthorhombic,-1.599,0.294,-,17.022,1.688,5.053,5.704,11.812,90.0,90.0,90.0,-10.429
SbLaO3,Sb,La,FALSE,not balanced,not balanced,0.68,1.03,cubic,-1.456,1.241,-0.092,18.435,0.000,4.517,4.517,4.517,90.0,90.0,90.0,-5.407
SbLiO3,Sb,Li,FALSE,5,1,0.60,0.76,cubic,-0.675,1.280,-,9.546,0.000,3.627,3.627,3.627,90.0,90.0,90.0,-5.428
SbLuO3,Sb,Lu,FALSE,not balanced,not balanced,0.68,0.86,cubic,-1.980,0.790,0.000,14.675,0.000,4.186,4.186,4.186,90.0,90.0,90.0,-1.451
SbMgO3,Sb,Mg,FALSE,not balanced,not balanced,0.68,0.72,cubic,-1.308,0.912,-,11.400,0.000,3.849,3.849,3.849,90.0,90.0,90.0,-2.504
SbMnO3,Sb,Mn,FALSE,3,3,0.76,0.65,orthorhombic,-1.647,0.208,0.800,11.624,0.000,5.287,5.680,7.742,90.0,90.0,90.0,1.398
SbMoO3,Sb,Mo,FALSE,3,3,0.76,0.69,cubic,-1.292,0.527,0.000,12.693,0.000,3.989,3.989,3.989,90.0,90.0,90.0,2.864
SbNaO3,Sb,Na,FALSE,not balanced,not balanced,0.68,1.02,orthorhombic,-1.628,0.294,-,12.545,1.210,4.780,5.215,10.064,90.0,90.0,90.0,-9.071
SbNbO3,Sb,Nb,FALSE,not balanced,not balanced,0.68,0.68,cubic,-1.725,0.532,0.000,13.441,0.000,4.066,4.066,4.066,90.0,90.0,90.0,2.936
SbNdO3,Sb,Nd,FALSE,not balanced,not balanced,0.68,0.98,cubic,-1.457,1.221,0.039,17.950,0.000,4.477,4.477,4.477,90.0,90.0,90.0,-5.116
SbNiO3,Sb,Ni,FALSE,3,3,0.76,0.60,cubic,-0.870,0.653,0.201,10.581,0.000,3.754,3.754,3.754,90.0,90.0,90.0,0.167
SbNpO3,Sb,Np,FALSE,element not in BV,element not in BV,0.68,0.86,cubic,-1.832,0.921,0.531,17.095,0.000,4.405,4.405,4.405,90.0,90.0,90.0,-0.044
SbOsO3,Sb,Os,FALSE,element not in BV,element not in BV,0.68,0.57,cubic,-0.628,0.711,0.193,12.447,0.000,3.963,3.963,3.963,90.0,90.0,90.0,0.867
SbPaO3,Sb,Pa,FALSE,element not in BV,element not in BV,0.68,0.91,orthorhombic,-2.143,0.242,0.000,16.276,1.179,6.350,6.358,8.062,90.0,90.0,90.0,2.381
SbPbO3,Sb,Pb,FALSE,not balanced,not balanced,0.68,0.99,orthorhombic,-1.312,0.252,-,15.658,0.000,5.862,6.314,8.461,90.0,90.0,90.0,-3.418
SbPdO3,Sb,Pd,FALSE,3,3,0.76,0.76,cubic,-0.512,0.739,-,12.598,0.000,3.979,3.979,3.979,90.0,90.0,90.0,0.053
SbPmO3,Sb,Pm,FALSE,element not in BV,element not in BV,0.68,0.97,cubic,-1.526,1.102,0.022,17.511,0.000,4.440,4.440,4.440,90.0,90.0,90.0,-4.718
SbPrO3,Sb,Pr,FALSE,not balanced,not balanced,0.68,0.92,cubic,-1.394,1.262,0.060,18.323,0.000,4.508,4.508,4.508,90.0,90.0,90.0,-5.476
SbPtO3,Sb,Pt,FALSE,element not in BV,element not in BV,0.68,0.67,cubic,-0.414,0.815,0.000,13.018,0.000,4.023,4.023,4.023,90.0,90.0,90.0,-0.071
SbPuO3,Sb,Pu,FALSE,element not in BV,element not in BV,0.68,0.83,cubic,-1.897,0.709,0.769,16.637,0.000,4.365,4.365,4.365,90.0,90.0,90.0,1.714
SbRbO3,Sb,Rb,FALSE,not balanced,not balanced,0.68,1.52,orthorhombic,-1.605,0.248,-,18.771,1.890,5.206,5.920,12.181,90.0,90.0,90.0,-11.304
SbReO3,Sb,Re,FALSE,not balanced,not balanced,0.76,0.53,cubic,-0.929,0.637,0.026,12.519,0.000,3.971,3.971,3.971,90.0,90.0,90.0,1.672
SbRhO3,Sb,Rh,FALSE,3,3,0.76,0.67,cubic,-0.668,0.634,0.000,12.247,0.000,3.942,3.942,3.942,90.0,90.0,90.0,0.326
SbRuO3,Sb,Ru,FALSE,3,3,0.76,0.68,cubic,-0.758,0.613,0.188,12.238,0.000,3.941,3.941,3.941,90.0,90.0,90.0,1.154
Sb2O3,Sb,Sb,FALSE,3,3,0.76,0.76,cubic,-0.897,0.682,-,14.211,0.000,4.142,4.142,4.142,90.0,90.0,90.0,0.870
SbScO3,Sb,Sc,FALSE,3,3,0.76,0.75,cubic,-2.084,0.610,0.000,13.031,0.834,4.024,4.024,4.024,90.0,90.0,90.0,0.350
SbSiO3,Sb,Si,FALSE,not balanced,not balanced,0.68,0.40,cubic,-1.574,0.796,-,10.209,0.000,3.710,3.710,3.710,90.0,90.0,90.0,2.830
SbSmO3,Sb,Sm,FALSE,not balanced,not balanced,0.68,0.96,cubic,-1.568,1.147,0.011,17.218,0.000,4.416,4.416,4.416,90.0,90.0,90.0,-4.420
SbSnO3,Sb,Sn,FALSE,not balanced,not balanced,0.68,0.69,cubic,-1.142,0.556,-,13.640,0.000,4.086,4.086,4.086,90.0,90.0,90.0,3.013
SbSrO3,Sb,Sr,FALSE,not balanced,not balanced,0.68,1.18,orthorhombic,-2.134,0.212,-,16.467,0.000,5.939,6.155,9.011,90.0,90.0,90.0,-9.146
SbTaO3,Sb,Ta,FALSE,not balanced,not balanced,0.68,0.68,cubic,-1.877,0.578,0.001,13.246,0.000,4.046,4.046,4.046,90.0,90.0,90.0,3.272
SbTbO3,Sb,Tb,FALSE,not balanced,not balanced,0.68,0.84,cubic,-1.607,0.963,-0.001,16.192,0.000,4.326,4.326,4.326,90.0,90.0,90.0,-3.307
SbTcO3,Sb,Tc,FALSE,element not in BV,element not in BV,0.68,0.60,cubic,-0.995,0.560,0.359,12.480,0.000,3.966,3.966,3.966,90.0,90.0,90.0,1.975
SbTeO3,Sb,Te,FALSE,not balanced,not balanced,0.68,0.77,cubic,-0.633,0.749,-,14.998,0.000,4.217,4.217,4.217,90.0,90.0,90.0,-0.441
SbThO3,Sb,Th,FALSE,not balanced,not balanced,0.68,0.94,cubic,-2.137,0.932,0.000,18.970,0.000,4.561,4.561,4.561,90.0,90.0,90.0,0.537
SbTiO3,Sb,Ti,FALSE,3,3,0.76,0.67,tetragonal,-2.177,0.295,0.145,12.745,0.000,3.892,3.892,4.207,90.0,90.0,90.0,3.841
SbTlO3,Sb,Tl,FALSE,not balanced,not balanced,0.68,1.20,orthorhombic,-1.180,0.365,-,14.757,0.869,5.751,6.242,8.222,90.0,90.0,90.0,-4.176
SbTmO3,Sb,Tm,FALSE,not balanced,not balanced,0.68,0.96,cubic,-1.915,0.841,0.000,15.130,0.000,4.229,4.229,4.229,90.0,90.0,90.0,-2.008
SbUO3,Sb,U,FALSE,not balanced,not balanced,0.68,0.85,cubic,-2.125,0.694,0.134,16.576,0.000,4.360,4.360,4.360,90.0,90.0,90.0,2.138
SbVO3,Sb,V,FALSE,3,3,0.76,0.64,orthorhombic,-1.993,0.112,0.400,11.801,0.606,5.306,5.791,7.681,90.0,90.0,90.0,3.131