Chemical formula,A,B,In literature,Valence A,Valence B,Radius A [ang],Radius B [ang],Lowest distortion,Formation energy [eV/atom],Stability [eV/atom],Magnetic moment [mu_B],Volume per atom [A^3/atom],Band gap [eV],a [ang],b [ang],c [ang],alpha [deg],beta [deg],gamma [deg],Vacancy energy [eV/O atom]
NbLaO3,Nb,La,FALSE,3,3,0.72,1.03,rhombohedral,-2.776,0.406,0.000,15.771,0.398,5.843,5.843,5.843,65.4,65.4,65.4,-9.466
NbLiO3,Nb,Li,FALSE,5,1,0.74,0.76,orthorhombic,-2.634,0.103,0.000,9.588,2.594,4.772,5.139,7.819,90.0,90.0,90.0,-2.884
NbLuO3,Nb,Lu,FALSE,3,3,0.72,0.86,cubic,-1.776,1.480,0.400,14.095,0.000,4.131,4.131,4.131,90.0,90.0,90.0,-4.611
NbMgO3,Nb,Mg,FALSE,not balanced,not balanced,0.77,0.72,cubic,-1.578,1.274,0.165,10.041,0.000,3.689,3.689,3.689,90.0,90.0,90.0,-2.489
NbMnO3,Nb,Mn,FALSE,3,3,0.72,0.65,cubic,-1.285,1.223,1.196,10.920,0.000,3.794,3.794,3.794,90.0,90.0,90.0,-1.475
NbMoO3,Nb,Mo,FALSE,2,4,0.79,0.65,cubic,-1.169,1.136,0.561,12.128,0.000,3.929,3.929,3.929,90.0,90.0,90.0,0.994
NbNaO3,Nb,Na,FALSE,not balanced,not balanced,0.77,1.02,orthorhombic,-2.492,0.214,0.000,13.091,2.601,5.522,5.708,8.307,90.0,90.0,90.0,-10.647
Nb2O3,Nb,Nb,FALSE,3,3,0.72,0.72,cubic,-1.569,0.924,0.609,12.867,0.000,4.007,4.007,4.007,90.0,90.0,90.0,2.484
NbNdO3,Nb,Nd,FALSE,3,3,0.72,0.98,cubic,-1.150,1.975,0.399,17.420,0.000,4.433,4.433,4.433,90.0,90.0,90.0,-9.017
NbNiO3,Nb,Ni,FALSE,3,3,0.72,0.60,cubic,-0.956,1.307,0.560,9.814,0.000,3.661,3.661,3.661,90.0,90.0,90.0,-0.477
NbNpO3,Nb,Np,FALSE,element not in BV,element not in BV,0.77,0.86,-,-,-,-,-,-,-,-,-,-,-,-,-
NbOsO3,Nb,Os,FALSE,element not in BV,element not in BV,0.77,0.57,cubic,-0.491,1.666,0.306,11.861,0.000,3.900,3.900,3.900,90.0,90.0,90.0,-1.774
NbPaO3,Nb,Pa,FALSE,element not in BV,element not in BV,0.77,0.91,cubic,-1.584,1.138,0.800,16.702,0.000,4.371,4.371,4.371,90.0,90.0,90.0,3.096
NbPbO3,Nb,Pb,FALSE,2,4,0.79,0.78,rhombohedral,-1.811,0.489,0.000,15.750,0.000,5.732,5.732,5.732,68.7,68.7,68.7,-9.306
NbPdO3,Nb,Pd,FALSE,2,4,0.79,0.62,cubic,-0.342,1.770,0.370,12.100,0.000,3.926,3.926,3.926,90.0,90.0,90.0,-1.843
NbPmO3,Nb,Pm,FALSE,element not in BV,element not in BV,0.77,0.97,cubic,-1.231,1.854,0.394,16.983,0.000,4.395,4.395,4.395,90.0,90.0,90.0,-8.550
NbPrO3,Nb,Pr,FALSE,2,4,0.79,0.85,cubic,-1.079,2.028,0.401,17.844,0.000,4.468,4.468,4.468,90.0,90.0,90.0,-9.427
NbPtO3,Nb,Pt,FALSE,element not in BV,element not in BV,0.77,0.67,cubic,-0.206,1.895,0.421,12.579,0.000,3.977,3.977,3.977,90.0,90.0,90.0,-4.786
NbPuO3,Nb,Pu,FALSE,element not in BV,element not in BV,0.77,0.83,orthorhombic,-2.728,0.335,1.020,13.794,0.000,5.638,6.268,7.808,90.0,90.0,90.0,-
NbRbO3,Nb,Rb,FALSE,not balanced,not balanced,0.77,1.52,orthorhombic,-2.538,0.136,0.000,19.351,3.347,6.027,6.083,10.556,90.0,90.0,90.0,-21.272
NbReO3,Nb,Re,FALSE,2,4,0.79,0.63,cubic,-0.797,1.442,0.536,12.003,0.000,3.915,3.915,3.915,90.0,90.0,90.0,-0.749
NbRhO3,Nb,Rh,FALSE,3,3,0.72,0.67,cubic,-0.531,1.607,0.331,11.728,0.000,3.885,3.885,3.885,90.0,90.0,90.0,-1.377
NbRuO3,Nb,Ru,FALSE,2,4,0.79,0.62,cubic,-0.644,1.528,0.231,11.627,0.000,3.874,3.874,3.874,90.0,90.0,90.0,-1.403
NbSbO3,Nb,Sb,FALSE,3,3,0.72,0.76,cubic,-0.672,1.584,0.647,13.717,0.000,4.093,4.093,4.093,90.0,90.0,90.0,0.340
NbScO3,Nb,Sc,FALSE,3,3,0.72,0.75,cubic,-1.948,1.210,0.400,12.386,0.000,3.956,3.956,3.956,90.0,90.0,90.0,-2.429
NbSiO3,Nb,Si,FALSE,2,4,0.79,0.40,cubic,-1.605,1.101,0.561,9.385,0.000,3.607,3.607,3.607,90.0,90.0,90.0,2.974
NbSmO3,Nb,Sm,FALSE,3,3,0.72,0.96,cubic,-1.280,1.877,0.399,16.675,0.000,4.369,4.369,4.369,90.0,90.0,90.0,-8.220
NbSnO3,Nb,Sn,FALSE,2,4,0.79,0.69,orthorhombic,-1.961,0.355,0.000,12.934,0.000,5.735,6.622,6.811,90.0,90.0,90.0,1.467
NbSrO3,Nb,Sr,FALSE,not balanced,not balanced,0.77,1.18,orthorhombic,-2.703,0.318,0.000,15.624,0.000,5.672,6.217,8.862,90.0,90.0,90.0,-14.053
NbTaO3,Nb,Ta,FALSE,2,4,0.79,0.68,cubic,-1.727,0.895,0.643,12.692,0.000,3.989,3.989,3.989,90.0,90.0,90.0,2.888
NbTbO3,Nb,Tb,FALSE,2,4,0.79,0.76,cubic,-1.352,1.721,0.401,15.634,0.000,4.276,4.276,4.276,90.0,90.0,90.0,-6.862
NbTcO3,Nb,Tc,FALSE,element not in BV,element not in BV,0.77,0.60,cubic,-0.871,1.367,0.416,11.765,0.000,3.889,3.889,3.889,90.0,90.0,90.0,-0.583
NbTeO3,Nb,Te,FALSE,2,4,0.79,0.97,cubic,-0.390,1.791,0.622,14.536,0.000,4.173,4.173,4.173,90.0,90.0,90.0,-3.040
NbThO3,Nb,Th,FALSE,2,4,0.79,0.94,cubic,-1.781,1.623,0.600,18.639,0.000,4.534,4.534,4.534,90.0,90.0,90.0,-4.590
NbTiO3,Nb,Ti,FALSE,2,4,0.79,0.61,cubic,-1.980,0.877,0.526,11.393,0.000,3.848,3.848,3.848,90.0,90.0,90.0,1.931
NbTlO3,Nb,Tl,FALSE,3,3,0.72,0.89,rhombohedral,-1.642,0.646,0.000,15.555,0.293,5.662,5.662,5.662,70.2,70.2,70.2,-9.673
NbTmO3,Nb,Tm,FALSE,3,3,0.72,0.88,cubic,-1.694,1.553,0.400,14.535,0.000,4.173,4.173,4.173,90.0,90.0,90.0,-5.300
NbUO3,Nb,U,FALSE,2,4,0.79,0.89,cubic,-1.791,1.362,1.000,16.166,0.000,4.324,4.324,4.324,90.0,90.0,90.0,3.006
NbVO3,Nb,V,FALSE,2,4,0.79,0.58,cubic,-1.581,0.981,0.800,11.034,0.000,3.807,3.807,3.807,90.0,90.0,90.0,1.403
NbWO3,Nb,W,FALSE,2,4,0.79,0.66,cubic,-1.186,1.123,0.609,12.214,0.000,3.938,3.938,3.938,90.0,90.0,90.0,1.156
NbYO3,Nb,Y,FALSE,3,3,0.72,0.90,cubic,-1.512,1.680,0.399,15.346,0.000,4.249,4.249,4.249,90.0,90.0,90.0,-6.490
NbYbO3,Nb,Yb,FALSE,3,3,0.72,0.87,orthorhombic,-2.874,0.283,0.197,12.862,0.000,5.650,5.796,7.855,90.0,90.0,90.0,-10.296
NbZnO3,Nb,Zn,FALSE,not balanced,not balanced,0.77,0.74,cubic,-0.866,1.458,0.290,10.770,0.000,3.776,3.776,3.776,90.0,90.0,90.0,-4.159
NbZrO3,Nb,Zr,FALSE,2,4,0.79,0.72,cubic,-1.931,1.110,0.600,13.905,0.000,4.112,4.112,4.112,90.0,90.0,90.0,-1.584
NdAcO3,Nd,Ac,FALSE,element not in BV,element not in BV,1.27,1.12,cubic,-2.374,1.226,0.000,20.452,0.000,4.676,4.676,4.676,90.0,90.0,90.0,1.695
NdAgO3,Nd,Ag,FALSE,3,3,1.27,0.75,orthorhombic,-1.903,0.076,0.000,13.295,0.000,5.569,5.992,7.969,90.0,90.0,90.0,0.039
NdAlO3,Nd,Al,TRUE,3,3,1.27,0.54,rhombohedral,-3.513,-0.030,0.000,10.645,4.598,5.297,5.297,5.297,60.6,60.6,60.6,6.454
NdAsO3,Nd,As,FALSE,3,3,1.27,0.58,cubic,-2.055,0.563,0.000,13.120,0.000,4.033,4.033,4.033,90.0,90.0,90.0,2.687
NdAuO3,Nd,Au,FALSE,element not in BV,element not in BV,1.27,0.93,orthorhombic,-1.943,0.082,0.000,13.675,0.853,5.682,6.525,7.377,90.0,90.0,90.0,-0.053
NdBO3,Nd,B,FALSE,not balanced,not balanced,1.27,0.27,cubic,-2.431,0.867,0.000,8.909,2.497,3.545,3.545,3.545,90.0,90.0,90.0,5.021
NdBaO3,Nd,Ba,FALSE,not balanced,not balanced,1.27,1.35,orthorhombic,-2.701,0.287,0.112,19.582,0.000,6.118,6.118,10.463,90.0,90.0,90.0,-5.358
NdBeO3,Nd,Be,FALSE,not balanced,not balanced,1.27,0.45,cubic,-2.709,0.351,0.200,9.542,0.000,3.627,3.627,3.627,90.0,90.0,90.0,-0.443
NdBiO3,Nd,Bi,FALSE,3,3,1.27,1.03,cubic,-1.711,0.836,0.000,16.618,0.000,4.364,4.364,4.364,90.0,90.0,90.0,1.330
NdCaO3,Nd,Ca,FALSE,not balanced,not balanced,1.27,1.00,cubic,-2.323,0.829,0.200,14.231,0.000,4.144,4.144,4.144,90.0,90.0,90.0,-2.032
NdCdO3,Nd,Cd,FALSE,not balanced,not balanced,1.27,0.95,cubic,-1.764,0.604,-0.001,13.994,0.000,4.121,4.121,4.121,90.0,90.0,90.0,-0.394
NdCeO3,Nd,Ce,FALSE,2,4,1.35,0.87,cubic,-2.517,1.054,0.000,18.828,0.730,4.549,4.549,4.549,90.0,90.0,90.0,2.475
NdCoO3,Nd,Co,TRUE,3,3,1.27,0.61,orthorhombic,-2.456,0.002,0.400,11.251,0.000,5.348,5.485,7.671,90.0,90.0,90.0,3.124
NdCrO3,Nd,Cr,TRUE,3,3,1.27,0.62,orthorhombic,-3.122,-0.071,0.600,11.777,2.290,5.426,5.602,7.748,90.0,90.0,90.0,4.678
NdCsO3,Nd,Cs,FALSE,not balanced,not balanced,1.27,1.67,-,-,-,-,-,-,-,-,-,-,-,-,-
NdCuO3,Nd,Cu,FALSE,3,3,1.27,0.54,orthorhombic,-2.185,0.074,0.000,11.200,0.000,5.373,5.466,7.627,90.0,90.0,90.0,1.235
NdDyO3,Nd,Dy,FALSE,3,3,1.27,0.91,cubic,-3.089,0.646,0.000,15.730,1.704,4.285,4.285,4.285,90.0,90.0,90.0,4.401
NdErO3,Nd,Er,FALSE,3,3,1.27,0.89,cubic,-3.182,0.576,0.000,15.243,1.892,4.240,4.240,4.240,90.0,90.0,90.0,4.639
NdEuO3,Nd,Eu,FALSE,3,3,1.27,0.95,cubic,-2.325,0.907,0.131,15.669,0.000,4.279,4.279,4.279,90.0,90.0,90.0,-1.378
NdFeO3,Nd,Fe,TRUE,3,3,1.27,0.65,orthorhombic,-2.706,-0.036,1.000,11.914,1.081,5.431,5.648,7.769,90.0,90.0,90.0,3.830
NdGaO3,Nd,Ga,TRUE,3,3,1.27,0.62,orthorhombic,-2.891,0.001,0.000,11.664,3.895,5.426,5.556,7.738,90.0,90.0,90.0,4.861
NdGdO3,Nd,Gd,FALSE,3,3,1.27,0.94,cubic,-2.980,0.726,0.000,16.298,1.412,4.335,4.335,4.335,90.0,90.0,90.0,4.071
NdGeO3,Nd,Ge,FALSE,2,4,1.35,0.53,orthorhombic,-2.510,0.208,0.000,12.733,0.000,5.500,5.835,7.935,90.0,90.0,90.0,3.182
NdHfO3,Nd,Hf,FALSE,2,4,1.35,0.71,orthorhombic,-3.386,0.152,0.009,13.366,0.000,5.628,5.940,7.996,90.0,90.0,90.0,5.015
NdHgO3,Nd,Hg,FALSE,not balanced,not balanced,1.27,1.11,cubic,-1.361,0.694,-0.001,14.940,0.000,4.212,4.212,4.212,90.0,90.0,90.0,-0.370
NdHoO3,Nd,Ho,FALSE,3,3,1.27,0.90,cubic,-3.137,0.610,0.000,15.480,1.702,4.262,4.262,4.262,90.0,90.0,90.0,4.513
NdInO3,Nd,In,TRUE,3,3,1.27,0.80,orthorhombic,-2.720,0.013,0.000,13.730,2.935,5.643,5.947,8.183,90.0,90.0,90.0,3.394
NdIrO3,Nd,Ir,FALSE,2,4,1.35,0.63,orthorhombic,-2.202,0.087,0.000,12.385,0.905,5.368,5.918,7.797,90.0,90.0,90.0,-0.008
NdKO3,Nd,K,FALSE,not balanced,not balanced,1.27,1.38,orthorhombic,-1.943,0.445,0.400,19.020,0.000,6.166,6.251,9.869,90.0,90.0,90.0,-3.388
NdLaO3,Nd,La,FALSE,3,3,1.27,1.03,cubic,-2.638,1.028,0.000,18.563,0.693,4.528,4.528,4.528,90.0,90.0,90.0,2.384
NdLiO3,Nd,Li,FALSE,not balanced,not balanced,1.27,0.76,orthorhombic,-2.215,0.306,0.400,11.164,0.000,5.131,5.813,7.487,90.0,90.0,90.0,-0.755
NdLuO3,Nd,Lu,FALSE,3,3,1.27,0.86,orthorhombic,-3.769,0.022,0.000,14.002,5.041,5.699,5.950,8.258,90.0,90.0,90.0,4.963
NdMgO3,Nd,Mg,FALSE,not balanced,not balanced,1.27,0.72,orthorhombic,-2.857,0.194,0.200,12.040,0.000,5.383,5.771,7.751,90.0,90.0,90.0,-0.680
NdMnO3,Nd,Mn,TRUE,3,3,1.27,0.65,orthorhombic,-2.885,0.001,0.800,11.967,0.000,5.428,5.715,7.716,90.0,90.0,90.0,3.843
NdMoO3,Nd,Mo,FALSE,2,4,1.35,0.65,orthorhombic,-2.612,0.212,0.575,12.936,0.000,5.511,5.905,7.950,90.0,90.0,90.0,2.722
NdNaO3,Nd,Na,FALSE,not balanced,not balanced,1.27,1.02,cubic,-1.581,0.826,0.400,12.612,0.000,3.980,3.980,3.980,90.0,90.0,90.0,-1.997
NdNbO3,Nd,Nb,FALSE,2,4,1.35,0.68,orthorhombic,-2.928,0.197,0.000,13.023,0.000,5.513,6.022,7.845,90.0,90.0,90.0,3.940
Nd2O3,Nd,Nd,FALSE,3,3,1.27,0.98,cubic,-2.692,0.928,0.000,17.831,0.935,4.467,4.467,4.467,90.0,90.0,90.0,3.107
NdNiO3,Nd,Ni,TRUE,3,3,1.27,0.60,orthorhombic,-2.328,0.042,0.200,11.089,0.000,5.370,5.420,7.620,90.0,90.0,90.0,1.425
NdNpO3,Nd,Np,FALSE,element not in BV,element not in BV,1.27,0.86,cubic,-2.752,0.798,0.792,17.182,0.000,4.412,4.412,4.412,90.0,90.0,90.0,3.451
NdOsO3,Nd,Os,FALSE,element not in BV,element not in BV,1.27,0.57,cubic,-1.830,0.551,0.002,12.488,0.000,3.967,3.967,3.967,90.0,90.0,90.0,1.019
NdPaO3,Nd,Pa,FALSE,element not in BV,element not in BV,1.27,0.91,cubic,-2.533,0.672,0.303,17.909,0.000,4.474,4.474,4.474,90.0,90.0,90.0,3.571
NdPbO3,Nd,Pb,FALSE,2,4,1.35,0.78,cubic,-1.614,0.816,0.000,14.677,0.000,4.187,4.187,4.187,90.0,90.0,90.0,-
NdPdO3,Nd,Pd,FALSE,2,4,1.35,0.62,orthorhombic,-2.142,0.047,0.001,12.681,0.000,5.517,5.951,7.726,90.0,90.0,90.0,0.583
NdPmO3,Nd,Pm,FALSE,element not in BV,element not in BV,1.27,0.97,cubic,-2.780,0.869,0.000,17.360,1.128,4.428,4.428,4.428,90.0,90.0,90.0,3.350
NdPrO3,Nd,Pr,FALSE,2,4,1.35,0.85,cubic,-2.611,0.987,0.000,18.292,0.745,4.505,4.505,4.505,90.0,90.0,90.0,2.807
NdPtO3,Nd,Pt,FALSE,element not in BV,element not in BV,1.27,0.67,cubic,-1.708,0.537,0.000,13.203,0.000,4.042,4.042,4.042,90.0,90.0,90.0,0.171
NdPuO3,Nd,Pu,FALSE,element not in BV,element not in BV,1.27,0.83,cubic,-2.796,0.831,0.930,16.916,0.000,4.390,4.390,4.390,90.0,90.0,90.0,2.710
NdRbO3,Nd,Rb,FALSE,not balanced,not balanced,1.27,1.52,cubic,-0.738,1.640,-0.005,16.527,0.000,4.356,4.356,4.356,90.0,90.0,90.0,-2.810
NdReO3,Nd,Re,FALSE,3,3,1.27,0.63,cubic,-2.042,0.546,0.173,12.558,0.000,3.975,3.975,3.975,90.0,90.0,90.0,1.361
NdRhO3,Nd,Rh,TRUE,2,4,1.35,0.60,orthorhombic,-2.336,-0.059,0.000,12.251,0.729,5.385,5.839,7.793,90.0,90.0,90.0,0.681
NdRuO3,Nd,Ru,FALSE,2,4,1.35,0.62,orthorhombic,-2.339,0.041,0.198,12.234,0.000,5.347,5.888,7.772,90.0,90.0,90.0,1.544
NdSbO3,Nd,Sb,FALSE,3,3,1.27,0.76,cubic,-1.914,0.764,0.000,15.219,0.000,4.238,4.238,4.238,90.0,90.0,90.0,1.800
NdScO3,Nd,Sc,TRUE,3,3,1.27,0.75,orthorhombic,-3.736,-0.022,0.000,12.923,4.473,5.565,5.802,8.004,90.0,90.0,90.0,5.348
NdSiO3,Nd,Si,FALSE,3,3,1.27,0.40,cubic,-2.679,0.614,0.001,10.671,0.000,3.765,3.765,3.765,90.0,90.0,90.0,4.689
NdSmO3,Nd,Sm,FALSE,3,3,1.27,0.96,cubic,-2.834,0.827,0.000,17.064,1.318,4.402,4.402,4.402,90.0,90.0,90.0,0.939
NdSnO3,Nd,Sn,FALSE,2,4,1.35,0.69,cubic,-2.162,0.615,0.000,14.186,0.000,4.139,4.139,4.139,90.0,90.0,90.0,2.655
NdSrO3,Nd,Sr,FALSE,not balanced,not balanced,1.27,1.18,cubic,-1.908,1.143,0.000,16.974,0.000,4.395,4.395,4.395,90.0,90.0,90.0,-2.383
NdTaO3,Nd,Ta,FALSE,2,4,1.35,0.68,orthorhombic,-2.929,0.323,0.000,12.886,0.000,5.499,6.015,7.792,90.0,90.0,90.0,4.009
NdTbO3,Nd,Tb,FALSE,2,4,1.35,0.76,cubic,-2.905,0.685,0.000,16.004,1.693,4.309,4.309,4.309,90.0,90.0,90.0,4.270
NdTcO3,Nd,Tc,FALSE,element not in BV,element not in BV,1.27,0.60,orthorhombic,-2.469,0.107,0.389,12.448,0.000,5.390,5.918,7.805,90.0,90.0,90.0,2.231
NdTeO3,Nd,Te,FALSE,2,4,1.35,0.97,cubic,-1.602,0.887,0.000,15.437,0.000,4.258,4.258,4.258,90.0,90.0,90.0,1.424
NdThO3,Nd,Th,FALSE,2,4,1.35,0.94,cubic,-2.933,0.816,0.047,18.964,0.000,4.560,4.560,4.560,90.0,90.0,90.0,3.009
NdTiO3,Nd,Ti,TRUE,2,4,1.35,0.61,orthorhombic,-3.396,0.023,0.199,12.138,0.000,5.457,5.700,7.804,90.0,90.0,90.0,5.207
NdTlO3,Nd,Tl,FALSE,3,3,1.27,0.89,orthorhombic,-2.226,0.053,0.000,14.802,1.178,5.739,6.113,8.439,90.0,90.0,90.0,1.067
NdTmO3,Nd,Tm,FALSE,3,3,1.27,0.88,cubic,-3.239,0.537,0.000,14.978,1.895,4.215,4.215,4.215,90.0,90.0,90.0,4.762
NdUO3,Nd,U,FALSE,2,4,1.35,0.89,cubic,-2.731,0.798,0.551,17.191,0.000,4.413,4.413,4.413,90.0,90.0,90.0,2.910
NdVO3,Nd,V,TRUE,3,3,1.27,0.64,orthorhombic,-3.196,-0.071,0.400,12.091,1.214,5.453,5.703,7.776,90.0,90.0,90.0,4.373
NdWO3,Nd,W,FALSE,2,4,1.35,0.66,cubic,-2.336,0.589,0.003,12.683,0.000,3.988,3.988,3.988,90.0,90.0,90.0,2.322
NdYO3,Nd,Y,FALSE,3,3,1.27,0.90,cubic,-3.065,0.649,0.000,15.735,1.820,4.285,4.285,4.285,90.0,90.0,90.0,4.343
NdYbO3,Nd,Yb,FALSE,3,3,1.27,0.87,cubic,-2.550,0.726,-0.001,14.100,0.000,4.131,4.131,4.131,90.0,90.0,90.0,-1.216
NdZnO3,Nd,Zn,FALSE,not balanced,not balanced,1.27,0.74,orthorhombic,-2.377,0.157,0.000,11.958,0.000,5.395,5.750,7.711,90.0,90.0,90.0,0.328
NdZrO3,Nd,Zr,FALSE,2,4,1.35,0.72,orthorhombic,-3.332,0.155,0.139,13.622,0.000,5.643,6.144,7.858,90.0,90.0,90.0,4.658
NiAcO3,Ni,Ac,FALSE,element not in BV,element not in BV,0.59,1.12,rhombohedral,-2.038,0.327,0.600,16.181,0.000,6.367,6.367,6.367,55.1,55.1,55.1,-5.890
NiAgO3,Ni,Ag,FALSE,not balanced,not balanced,0.59,0.95,orthorhombic,-0.372,0.237,0.380,10.552,0.000,5.122,5.323,7.741,90.0,90.0,90.0,-4.487
NiAlO3,Ni,Al,FALSE,not balanced,not balanced,0.59,0.54,cubic,-1.280,0.849,0.600,9.394,0.000,3.608,3.608,3.608,90.0,90.0,90.0,-
NiAsO3,Ni,As,FALSE,1,5,0.69,0.46,cubic,-0.430,0.995,0.288,10.247,0.000,3.714,3.714,3.714,90.0,90.0,90.0,-3.104
NiAuO3,Ni,Au,FALSE,element not in BV,element not in BV,0.59,0.93,cubic,0.348,0.985,0.406,12.777,0.000,3.998,3.998,3.998,90.0,90.0,90.0,-
NiBO3,Ni,B,FALSE,3,3,0.60,0.27,cubic,-0.476,1.373,0.600,7.552,0.000,3.355,3.355,3.355,90.0,90.0,90.0,-4.481
NiBaO3,Ni,Ba,FALSE,not balanced,not balanced,0.59,1.35,orthorhombic,-1.395,0.373,0.800,18.390,0.763,5.748,6.519,9.815,90.0,90.0,90.0,-
NiBeO3,Ni,Be,FALSE,not balanced,not balanced,0.59,0.45,-,-,-,-,-,-,-,-,-,-,-,-,-
NiBiO3,Ni,Bi,FALSE,not balanced,not balanced,0.59,0.90,orthorhombic,-1.111,0.157,0.390,12.505,0.000,5.510,5.641,8.046,90.0,90.0,90.0,-
NiCaO3,Ni,Ca,FALSE,not balanced,not balanced,0.59,1.00,rhombohedral,-1.458,0.342,0.800,13.428,0.764,5.927,5.927,5.927,56.2,56.2,56.2,-
NiCdO3,Ni,Cd,FALSE,not balanced,not balanced,0.59,0.95,orthorhombic,-0.611,0.381,0.800,11.501,0.000,5.485,5.588,7.505,90.0,90.0,90.0,-
NiCeO3,Ni,Ce,FALSE,not balanced,not balanced,0.59,0.94,orthorhombic,-2.011,0.283,0.600,13.989,0.489,5.591,5.897,8.485,90.0,90.0,90.0,-
NiCoO3,Ni,Co,FALSE,not balanced,not balanced,0.59,0.63,-,-,-,-,-,-,-,-,-,-,-,-,-
NiCrO3,Ni,Cr,FALSE,2,4,0.69,0.55,cubic,-1.078,0.694,-0.001,10.198,0.000,3.708,3.708,3.708,90.0,90.0,90.0,-
NiCsO3,Ni,Cs,FALSE,not balanced,not balanced,0.59,1.67,-,-,-,-,-,-,-,-,-,-,-,-,-
NiCuO3,Ni,Cu,FALSE,not balanced,not balanced,0.59,0.68,cubic,0.153,0.972,0.561,9.978,0.000,3.681,3.681,3.681,90.0,90.0,90.0,-
NiDyO3,Ni,Dy,FALSE,not balanced,not balanced,0.59,0.99,orthorhombic,-2.128,0.293,0.599,12.337,0.000,5.638,5.644,7.754,90.0,90.0,90.0,-
NiErO3,Ni,Er,FALSE,not balanced,not balanced,0.59,0.89,orthorhombic,-2.155,0.290,0.598,12.064,0.000,5.589,5.618,7.684,90.0,90.0,90.0,-
NiEuO3,Ni,Eu,FALSE,not balanced,not balanced,0.59,1.06,rhombohedral,-1.583,0.312,0.800,13.987,0.599,5.888,5.888,5.888,58.6,58.6,58.6,-
NiFeO3,Ni,Fe,FALSE,2,4,0.69,0.59,cubic,-0.432,0.902,1.231,10.613,0.000,3.758,3.758,3.758,90.0,90.0,90.0,-
NiGaO3,Ni,Ga,FALSE,not balanced,not balanced,0.59,0.62,cubic,-0.499,1.070,0.610,10.832,0.000,3.783,3.783,3.783,90.0,90.0,90.0,-5.002
NiGdO3,Ni,Gd,FALSE,not balanced,not balanced,0.59,0.94,orthorhombic,-2.097,0.296,0.600,12.645,0.000,5.676,5.693,7.826,90.0,90.0,90.0,-
NiGeO3,Ni,Ge,FALSE,2,4,0.69,0.53,cubic,-0.727,0.971,0.401,9.993,0.000,3.683,3.683,3.683,90.0,90.0,90.0,-
NiHfO3,Ni,Hf,FALSE,2,4,0.69,0.71,cubic,-1.744,1.056,0.400,13.216,0.000,4.043,4.043,4.043,90.0,90.0,90.0,-2.313
NiHgO3,Ni,Hg,FALSE,not balanced,not balanced,0.59,1.11,orthorhombic,-0.329,0.350,0.237,11.651,0.000,5.311,5.469,8.022,90.0,90.0,90.0,-4.232
NiHoO3,Ni,Ho,FALSE,not balanced,not balanced,0.59,0.90,orthorhombic,-2.142,0.292,0.598,12.193,0.000,5.616,5.626,7.718,90.0,90.0,90.0,-
NiInO3,Ni,In,FALSE,not balanced,not balanced,0.59,0.80,-,-,-,-,-,-,-,-,-,-,-,-,-
NiIrO3,Ni,Ir,FALSE,2,4,0.69,0.63,cubic,-0.190,0.945,0.209,11.054,0.000,3.809,3.809,3.809,90.0,90.0,90.0,-
NiKO3,Ni,K,FALSE,not balanced,not balanced,0.59,1.38,-,-,-,-,-,-,-,-,-,-,-,-,-
NiLaO3,Ni,La,FALSE,not balanced,not balanced,0.59,1.03,orthorhombic,-2.114,0.262,0.600,13.915,0.540,5.573,5.896,8.469,90.0,90.0,90.0,-
NiLiO3,Ni,Li,FALSE,not balanced,not balanced,0.59,0.76,cubic,0.241,1.453,-0.046,10.098,0.000,3.696,3.696,3.696,90.0,90.0,90.0,-
NiLuO3,Ni,Lu,FALSE,not balanced,not balanced,0.59,0.86,-,-,-,-,-,-,-,-,-,-,-,-,-
NiMgO3,Ni,Mg,FALSE,not balanced,not balanced,0.59,0.72,cubic,-0.330,1.363,-0.054,11.255,0.000,3.832,3.832,3.832,90.0,90.0,90.0,-
NiMnO3,Ni,Mn,FALSE,2,4,0.69,0.53,cubic,-0.583,1.013,1.014,9.523,0.000,3.625,3.625,3.625,90.0,90.0,90.0,-3.746
NiMoO3,Ni,Mo,FALSE,2,4,0.69,0.65,cubic,-1.063,0.743,0.214,11.429,0.000,3.852,3.852,3.852,90.0,90.0,90.0,0.705
NiNaO3,Ni,Na,FALSE,not balanced,not balanced,0.59,1.02,cubic,0.861,1.987,-0.238,12.183,0.000,3.935,3.935,3.935,90.0,90.0,90.0,-
NiNbO3,Ni,Nb,FALSE,2,4,0.69,0.68,cubic,-1.488,0.775,0.202,12.449,0.000,3.963,3.963,3.963,90.0,90.0,90.0,1.244
NiNdO3,Ni,Nd,FALSE,not balanced,not balanced,0.59,0.98,orthorhombic,-2.011,0.359,0.600,13.431,0.000,5.730,5.838,8.030,90.0,90.0,90.0,-
Ni2O3,Ni,Ni,FALSE,not balanced,not balanced,0.59,0.59,-,-,-,-,-,-,-,-,-,-,-,-,-
NiNpO3,Ni,Np,FALSE,element not in BV,element not in BV,0.59,0.86,-,-,-,-,-,-,-,-,-,-,-,-,-
NiOsO3,Ni,Os,FALSE,element not in BV,element not in BV,0.59,0.57,-,-,-,-,-,-,-,-,-,-,-,-,-
NiPaO3,Ni,Pa,FALSE,element not in BV,element not in BV,0.59,0.91,cubic,-1.624,0.732,0.205,16.347,0.000,4.340,4.340,4.340,90.0,90.0,90.0,-
NiPbO3,Ni,Pb,FALSE,2,4,0.69,0.78,orthorhombic,-1.052,0.114,0.400,12.029,0.343,5.429,5.509,8.043,90.0,90.0,90.0,-
NiPdO3,Ni,Pd,FALSE,2,4,0.69,0.62,cubic,0.049,0.805,0.499,11.788,0.000,3.892,3.892,3.892,90.0,90.0,90.0,-0.931
NiPmO3,Ni,Pm,FALSE,element not in BV,element not in BV,0.59,0.97,orthorhombic,-2.037,0.311,0.600,13.188,0.000,5.717,5.793,7.964,90.0,90.0,90.0,-
NiPrO3,Ni,Pr,FALSE,not balanced,not balanced,0.59,0.92,orthorhombic,-2.037,0.275,0.600,13.738,0.518,5.568,5.843,8.444,90.0,90.0,90.0,-
NiPtO3,Ni,Pt,FALSE,element not in BV,element not in BV,0.59,0.67,cubic,-1.670,-0.729,0.455,11.911,0.000,3.905,3.905,3.905,90.0,90.0,90.0,-