Chemical formula,A,B,In literature,Valence A,Valence B,Radius A [ang],Radius B [ang],Lowest distortion,Formation energy [eV/atom],Stability [eV/atom],Magnetic moment [mu_B],Volume per atom [A^3/atom],Band gap [eV],a [ang],b [ang],c [ang],alpha [deg],beta [deg],gamma [deg],Vacancy energy [eV/O atom]
AuCdO3,Au,Cd,FALSE,element not in BV,element not in BV,0.93,0.95,cubic,0.412,1.047,-,13.937,0.000,4.115,4.115,4.115,90.0,90.0,90.0,-6.003
AuCeO3,Au,Ce,FALSE,element not in BV,element not in BV,0.93,0.94,cubic,-0.821,1.097,0.332,17.968,0.000,4.479,4.479,4.479,90.0,90.0,90.0,-5.049
AuCoO3,Au,Co,FALSE,element not in BV,element not in BV,0.93,0.63,cubic,-0.071,0.697,-0.009,10.600,0.000,3.756,3.756,3.756,90.0,90.0,90.0,-2.143
AuCrO3,Au,Cr,FALSE,element not in BV,element not in BV,0.93,0.58,cubic,-0.846,0.536,0.200,11.067,0.000,3.811,3.811,3.811,90.0,90.0,90.0,-0.144
AuCsO3,Au,Cs,FALSE,element not in BV,element not in BV,0.93,1.67,cubic,0.842,1.586,-,16.659,0.000,4.367,4.367,4.367,90.0,90.0,90.0,-2.538
AuCuO3,Au,Cu,FALSE,element not in BV,element not in BV,0.93,0.68,cubic,0.208,0.671,-,10.652,0.000,3.762,3.762,3.762,90.0,90.0,90.0,-3.202
AuDyO3,Au,Dy,FALSE,element not in BV,element not in BV,0.93,0.99,cubic,-1.071,0.995,0.006,16.188,0.000,4.326,4.326,4.326,90.0,90.0,90.0,-4.694
AuErO3,Au,Er,FALSE,element not in BV,element not in BV,0.93,0.89,cubic,-1.129,0.960,-0.017,15.906,0.000,4.300,4.300,4.300,90.0,90.0,90.0,-4.425
AuEuO3,Au,Eu,FALSE,element not in BV,element not in BV,0.93,1.06,orthorhombic,-1.299,0.288,0.000,14.594,0.000,5.922,6.083,8.103,90.0,90.0,90.0,-7.065
AuFeO3,Au,Fe,FALSE,element not in BV,element not in BV,0.93,0.67,cubic,-0.396,0.569,0.600,11.049,0.000,3.809,3.809,3.809,90.0,90.0,90.0,-1.534
AuGaO3,Au,Ga,FALSE,element not in BV,element not in BV,0.93,0.62,cubic,-0.475,0.716,-,11.354,0.000,3.843,3.843,3.843,90.0,90.0,90.0,-2.697
AuGdO3,Au,Gd,FALSE,element not in BV,element not in BV,0.93,0.94,cubic,-1.073,1.001,0.409,16.662,0.000,4.367,4.367,4.367,90.0,90.0,90.0,-4.301
AuGeO3,Au,Ge,FALSE,element not in BV,element not in BV,0.93,0.63,cubic,-0.632,0.595,-,10.754,0.000,3.774,3.774,3.774,90.0,90.0,90.0,-0.023
AuHfO3,Au,Hf,FALSE,element not in BV,element not in BV,0.93,0.71,cubic,-1.855,0.542,-0.192,13.693,0.000,4.091,4.091,4.091,90.0,90.0,90.0,-0.207
AuHgO3,Au,Hg,FALSE,element not in BV,element not in BV,0.93,1.11,cubic,0.656,0.978,-,14.303,0.000,4.151,4.151,4.151,90.0,90.0,90.0,-4.928
AuHoO3,Au,Ho,FALSE,element not in BV,element not in BV,0.93,0.90,cubic,-1.166,0.911,0.403,16.076,0.000,4.316,4.316,4.316,90.0,90.0,90.0,-3.876
AuInO3,Au,In,FALSE,element not in BV,element not in BV,0.93,0.80,cubic,-0.150,0.913,-,14.106,0.000,4.132,4.132,4.132,90.0,90.0,90.0,-4.366
AuIrO3,Au,Ir,FALSE,element not in BV,element not in BV,0.93,0.63,cubic,-0.130,0.602,0.254,11.997,0.000,3.915,3.915,3.915,90.0,90.0,90.0,0.910
AuKO3,Au,K,FALSE,element not in BV,element not in BV,0.93,1.38,orthorhombic,-0.361,0.446,-,18.928,0.666,6.188,6.317,9.684,90.0,90.0,90.0,-9.922
AuLaO3,Au,La,FALSE,element not in BV,element not in BV,0.93,1.03,cubic,-0.980,1.167,-0.007,17.096,0.000,4.405,4.405,4.405,90.0,90.0,90.0,-4.391
AuLiO3,Au,Li,FALSE,element not in BV,element not in BV,0.93,0.76,cubic,0.241,1.084,-,9.561,0.000,3.629,3.629,3.629,90.0,90.0,90.0,-6.376
AuLuO3,Au,Lu,FALSE,element not in BV,element not in BV,0.93,0.86,cubic,-1.212,0.910,0.004,15.154,0.000,4.232,4.232,4.232,90.0,90.0,90.0,-4.013
AuMgO3,Au,Mg,FALSE,element not in BV,element not in BV,0.93,0.72,cubic,-0.434,0.894,-,11.396,0.000,3.848,3.848,3.848,90.0,90.0,90.0,-4.911
AuMnO3,Au,Mn,FALSE,element not in BV,element not in BV,0.93,0.62,cubic,-0.620,0.529,0.399,11.102,0.000,3.815,3.815,3.815,90.0,90.0,90.0,-1.162
AuMoO3,Au,Mo,FALSE,element not in BV,element not in BV,0.93,0.62,rhombohedral,-1.228,0.503,0.000,11.789,0.000,5.616,5.616,5.616,57.5,57.5,57.5,3.766
AuNaO3,Au,Na,FALSE,element not in BV,element not in BV,0.93,1.02,cubic,0.830,1.636,-,12.753,0.000,3.995,3.995,3.995,90.0,90.0,90.0,-10.045
AuNbO3,Au,Nb,FALSE,element not in BV,element not in BV,0.93,0.68,rhombohedral,-1.710,0.319,0.000,12.368,0.634,5.718,5.718,5.718,57.2,57.2,57.2,3.792
AuNdO3,Au,Nd,FALSE,element not in BV,element not in BV,0.93,0.98,cubic,-0.877,1.148,-0.083,17.779,0.000,4.463,4.463,4.463,90.0,90.0,90.0,-5.169
AuNiO3,Au,Ni,FALSE,element not in BV,element not in BV,0.93,0.59,cubic,0.038,0.676,0.677,10.664,0.000,3.764,3.764,3.764,90.0,90.0,90.0,-2.603
AuNpO3,Au,Np,FALSE,element not in BV,element not in BV,0.93,0.86,cubic,-1.721,0.599,0.382,15.438,0.000,4.258,4.258,4.258,90.0,90.0,90.0,1.147
AuOsO3,Au,Os,FALSE,element not in BV,element not in BV,0.93,0.57,cubic,-0.451,0.530,0.000,11.787,0.000,3.892,3.892,3.892,90.0,90.0,90.0,2.319
AuPaO3,Au,Pa,FALSE,element not in BV,element not in BV,0.93,0.91,rhombohedral,-2.093,-0.140,0.000,15.048,1.537,6.121,6.121,6.121,56.9,56.9,56.9,2.677
AuPbO3,Au,Pb,FALSE,element not in BV,element not in BV,0.93,0.99,cubic,-0.045,0.718,-,15.385,0.000,4.253,4.253,4.253,90.0,90.0,90.0,-2.377
AuPdO3,Au,Pd,FALSE,element not in BV,element not in BV,0.93,0.75,cubic,0.250,0.650,-,12.312,0.000,3.948,3.948,3.948,90.0,90.0,90.0,-2.224
AuPmO3,Au,Pm,FALSE,element not in BV,element not in BV,0.93,0.97,cubic,-0.920,1.059,-0.059,17.364,0.000,4.428,4.428,4.428,90.0,90.0,90.0,-5.089
AuPrO3,Au,Pr,FALSE,element not in BV,element not in BV,0.93,0.92,cubic,-0.841,1.092,-0.004,17.620,0.000,4.450,4.450,4.450,90.0,90.0,90.0,-5.219
AuPtO3,Au,Pt,FALSE,element not in BV,element not in BV,0.93,0.67,cubic,0.175,0.713,0.345,12.562,0.000,3.975,3.975,3.975,90.0,90.0,90.0,-1.231
AuPuO3,Au,Pu,FALSE,element not in BV,element not in BV,0.93,0.83,cubic,-1.527,0.523,0.588,15.591,0.000,4.272,4.272,4.272,90.0,90.0,90.0,-0.150
AuRbO3,Au,Rb,FALSE,element not in BV,element not in BV,0.93,1.52,cubic,1.228,2.041,-,16.055,0.000,4.314,4.314,4.314,90.0,90.0,90.0,-13.309
AuReO3,Au,Re,FALSE,element not in BV,element not in BV,0.93,0.57,cubic,-0.894,0.626,0.001,11.880,0.000,3.902,3.902,3.902,90.0,90.0,90.0,3.962
AuRhO3,Au,Rh,FALSE,element not in BV,element not in BV,0.93,0.61,cubic,-0.081,0.635,0.443,12.010,0.000,3.916,3.916,3.916,90.0,90.0,90.0,0.011
AuRuO3,Au,Ru,FALSE,element not in BV,element not in BV,0.93,0.62,orthorhombic,-0.598,0.255,-0.014,11.408,0.000,5.541,5.588,7.370,90.0,90.0,90.0,1.552
AuSbO3,Au,Sb,FALSE,element not in BV,element not in BV,0.93,0.68,rhombohedral,-0.874,0.258,-,12.373,0.000,5.613,5.613,5.613,59.5,59.5,59.5,1.928
AuScO3,Au,Sc,FALSE,element not in BV,element not in BV,0.93,0.75,cubic,-1.244,0.800,0.000,13.351,0.000,4.057,4.057,4.057,90.0,90.0,90.0,-3.267
AuSiO3,Au,Si,FALSE,element not in BV,element not in BV,0.93,0.40,cubic,-1.199,0.739,-,9.482,0.000,3.619,3.619,3.619,90.0,90.0,90.0,0.447
AuSmO3,Au,Sm,FALSE,element not in BV,element not in BV,0.93,0.96,cubic,-0.944,1.092,-0.063,17.212,0.000,4.415,4.415,4.415,90.0,90.0,90.0,-5.021
AuSnO3,Au,Sn,FALSE,element not in BV,element not in BV,0.93,0.69,cubic,-0.651,0.615,-,13.242,0.000,4.045,4.045,4.045,90.0,90.0,90.0,-0.539
AuSrO3,Au,Sr,FALSE,element not in BV,element not in BV,0.93,1.18,orthorhombic,-1.127,0.441,-,15.959,0.000,6.166,6.182,8.373,90.0,90.0,90.0,-8.702
AuTaO3,Au,Ta,FALSE,element not in BV,element not in BV,0.93,0.68,rhombohedral,-1.935,0.303,0.000,12.233,1.182,5.669,5.669,5.669,57.8,57.8,57.8,3.741
AuTbO3,Au,Tb,FALSE,element not in BV,element not in BV,0.93,0.84,cubic,-0.913,1.007,0.006,16.532,0.000,4.356,4.356,4.356,90.0,90.0,90.0,-4.780
AuTcO3,Au,Tc,FALSE,element not in BV,element not in BV,0.93,0.60,orthorhombic,-0.869,0.401,0.199,11.481,0.000,5.512,5.556,7.499,90.0,90.0,90.0,3.045
AuTeO3,Au,Te,FALSE,element not in BV,element not in BV,0.93,0.77,orthorhombic,-0.568,0.325,-,13.299,0.000,5.691,5.773,8.096,90.0,90.0,90.0,0.817
AuThO3,Au,Th,FALSE,element not in BV,element not in BV,0.93,0.94,cubic,-1.779,0.857,-0.130,18.042,0.000,4.485,4.485,4.485,90.0,90.0,90.0,-1.670
AuTiO3,Au,Ti,FALSE,element not in BV,element not in BV,0.93,0.71,orthorhombic,-1.763,0.277,0.000,11.239,0.000,5.488,5.517,7.425,90.0,90.0,90.0,-0.149
AuTlO3,Au,Tl,FALSE,element not in BV,element not in BV,0.93,1.20,cubic,0.374,0.983,-,14.819,0.000,4.200,4.200,4.200,90.0,90.0,90.0,-4.985
AuTmO3,Au,Tm,FALSE,element not in BV,element not in BV,0.93,0.96,cubic,-1.233,0.873,0.398,15.613,0.000,4.274,4.274,4.274,90.0,90.0,90.0,-3.584
AuUO3,Au,U,FALSE,element not in BV,element not in BV,0.93,0.85,orthorhombic,-2.267,0.237,0.200,14.996,1.753,5.813,6.082,8.484,90.0,90.0,90.0,2.881
AuVO3,Au,V,FALSE,element not in BV,element not in BV,0.93,0.64,orthorhombic,-1.358,0.274,0.227,11.057,0.000,5.524,5.565,7.194,90.0,90.0,90.0,1.401
AuWO3,Au,W,FALSE,element not in BV,element not in BV,0.93,0.63,cubic,-1.355,0.602,0.000,12.121,0.000,3.928,3.928,3.928,90.0,90.0,90.0,4.501
AuYO3,Au,Y,FALSE,element not in BV,element not in BV,0.93,0.90,cubic,-1.123,0.922,0.401,16.728,0.000,4.373,4.373,4.373,90.0,90.0,90.0,-3.817
AuYbO3,Au,Yb,FALSE,element not in BV,element not in BV,0.93,0.95,cubic,-0.362,1.212,-,14.409,0.000,4.161,4.161,4.161,90.0,90.0,90.0,-7.276
AuZnO3,Au,Zn,FALSE,element not in BV,element not in BV,0.93,0.74,cubic,0.077,0.877,-,11.421,0.000,3.851,3.851,3.851,90.0,90.0,90.0,-4.622
AuZrO3,Au,Zr,FALSE,element not in BV,element not in BV,0.93,0.72,cubic,-1.681,0.592,-0.201,14.302,0.000,4.151,4.151,4.151,90.0,90.0,90.0,-0.649
BAcO3,B,Ac,FALSE,element not in BV,element not in BV,0.27,1.12,cubic,-0.416,2.685,0.000,18.084,0.000,4.488,4.488,4.488,90.0,90.0,90.0,-1.498
BAgO3,B,Ag,FALSE,not balanced,not balanced,0.27,0.95,cubic,1.216,2.640,-,12.409,0.000,3.959,3.959,3.959,90.0,90.0,90.0,-8.056
BAlO3,B,Al,FALSE,not balanced,not balanced,0.27,0.54,cubic,-0.574,2.409,-,9.410,0.000,3.610,3.610,3.610,90.0,90.0,90.0,-4.998
BAsO3,B,As,FALSE,1,5,0.27,0.46,cubic,-0.025,2.010,-,9.791,0.000,3.658,3.658,3.658,90.0,90.0,90.0,1.490
BAuO3,B,Au,FALSE,element not in BV,element not in BV,0.27,0.93,cubic,1.110,2.562,-,12.637,0.000,3.983,3.983,3.983,90.0,90.0,90.0,-3.811
B2O3,B,B,FALSE,not balanced,not balanced,0.27,0.27,cubic,0.152,2.775,-,6.741,0.000,3.230,3.230,3.230,90.0,90.0,90.0,-5.652
BBaO3,B,Ba,FALSE,not balanced,not balanced,0.27,1.35,cubic,0.652,3.342,-,18.571,0.000,4.528,4.528,4.528,90.0,90.0,90.0,-8.221
BBeO3,B,Be,FALSE,not balanced,not balanced,0.27,0.45,cubic,0.113,2.611,-,7.436,0.000,3.338,3.338,3.338,90.0,90.0,90.0,-7.318
BBiO3,B,Bi,FALSE,1,5,0.27,0.76,cubic,0.213,2.336,-,14.181,0.000,4.139,4.139,4.139,90.0,90.0,90.0,-0.018
BCaO3,B,Ca,FALSE,not balanced,not balanced,0.27,1.00,cubic,0.497,3.281,-,15.719,0.000,4.283,4.283,4.283,90.0,90.0,90.0,-8.695
BCdO3,B,Cd,FALSE,not balanced,not balanced,0.27,0.95,cubic,1.069,2.950,-,13.744,0.000,4.096,4.096,4.096,90.0,90.0,90.0,-8.431
BCeO3,B,Ce,FALSE,2,4,0.27,0.87,cubic,-0.244,3.029,0.001,18.681,0.000,4.537,4.537,4.537,90.0,90.0,90.0,-4.648
BCoO3,B,Co,FALSE,2,4,0.27,0.53,cubic,0.418,2.356,-0.538,9.511,0.000,3.623,3.623,3.623,90.0,90.0,90.0,-2.534
BCrO3,B,Cr,FALSE,1,5,0.27,0.49,cubic,-0.315,2.274,0.201,10.118,0.000,3.699,3.699,3.699,90.0,90.0,90.0,-1.803
BCsO3,B,Cs,FALSE,not balanced,not balanced,0.27,1.67,cubic,1.394,3.422,-,16.308,0.000,4.336,4.336,4.336,90.0,90.0,90.0,-1.902
BCuO3,B,Cu,FALSE,not balanced,not balanced,0.27,0.68,cubic,0.823,2.465,-,9.627,0.000,3.638,3.638,3.638,90.0,90.0,90.0,-6.409
BDyO3,B,Dy,FALSE,not balanced,not balanced,0.27,0.99,cubic,-0.467,2.895,-0.007,16.144,0.000,4.322,4.322,4.322,90.0,90.0,90.0,-5.142
BErO3,B,Er,FALSE,not balanced,not balanced,0.27,0.89,cubic,-0.510,2.833,-0.006,15.800,0.000,4.291,4.291,4.291,90.0,90.0,90.0,-5.129
BEuO3,B,Eu,FALSE,not balanced,not balanced,0.27,1.06,cubic,0.233,3.161,0.597,17.434,0.000,4.434,4.434,4.434,90.0,90.0,90.0,-7.102
BFeO3,B,Fe,FALSE,1,5,0.27,0.59,cubic,0.155,2.322,0.719,10.011,0.000,3.685,3.685,3.685,90.0,90.0,90.0,-3.619
BGaO3,B,Ga,FALSE,not balanced,not balanced,0.27,0.62,cubic,0.210,2.572,-,10.807,0.000,3.781,3.781,3.781,90.0,90.0,90.0,-6.300
BGdO3,B,Gd,FALSE,not balanced,not balanced,0.27,0.94,cubic,-0.420,2.871,-0.009,16.624,0.000,4.364,4.364,4.364,90.0,90.0,90.0,-5.050
BGeO3,B,Ge,FALSE,2,4,0.27,0.53,cubic,-0.116,2.046,-,9.982,0.000,3.682,3.682,3.682,90.0,90.0,90.0,-0.598
BHfO3,B,Hf,FALSE,2,4,0.27,0.71,cubic,-1.258,1.936,0.002,13.578,0.000,4.079,4.079,4.079,90.0,90.0,90.0,-0.733
BHgO3,B,Hg,FALSE,not balanced,not balanced,0.27,1.11,cubic,1.291,2.815,-,13.973,0.000,4.119,4.119,4.119,90.0,90.0,90.0,-7.553
BHoO3,B,Ho,FALSE,not balanced,not balanced,0.27,0.90,cubic,-0.484,2.840,0.001,15.905,0.000,4.300,4.300,4.300,90.0,90.0,90.0,-5.168
BInO3,B,In,FALSE,not balanced,not balanced,0.27,0.80,cubic,0.501,2.801,-,14.012,0.000,4.123,4.123,4.123,90.0,90.0,90.0,-5.894
BIrO3,B,Ir,FALSE,1,5,0.27,0.57,cubic,0.308,2.098,0.183,11.344,0.000,3.842,3.842,3.842,90.0,90.0,90.0,0.614
BKO3,B,K,FALSE,not balanced,not balanced,0.27,1.38,cubic,1.879,3.927,-,16.993,0.000,4.396,4.396,4.396,90.0,90.0,90.0,-4.527
BLaO3,B,La,FALSE,not balanced,not balanced,0.27,1.03,cubic,-0.399,2.958,0.001,16.488,0.000,4.352,4.352,4.352,90.0,90.0,90.0,-4.081
BLiO3,B,Li,FALSE,not balanced,not balanced,0.27,0.76,cubic,0.961,3.047,-,8.156,0.000,3.442,3.442,3.442,90.0,90.0,90.0,-10.088
BLuO3,B,Lu,FALSE,not balanced,not balanced,0.27,0.86,cubic,-0.574,2.831,0.001,15.132,0.000,4.229,4.229,4.229,90.0,90.0,90.0,-5.132
BMgO3,B,Mg,FALSE,not balanced,not balanced,0.27,0.72,cubic,0.338,2.929,-,11.048,0.000,3.809,3.809,3.809,90.0,90.0,90.0,-8.300
BMnO3,B,Mn,FALSE,2,4,0.27,0.53,cubic,-0.058,2.262,0.409,10.023,0.000,3.687,3.687,3.687,90.0,90.0,90.0,-3.248
BMoO3,B,Mo,FALSE,1,5,0.27,0.61,cubic,-0.771,1.510,0.001,11.628,0.000,3.874,3.874,3.874,90.0,90.0,90.0,3.943
BNaO3,B,Na,FALSE,not balanced,not balanced,0.27,1.02,cubic,1.582,3.622,-,12.965,0.000,4.017,4.017,4.017,90.0,90.0,90.0,-14.748
BNbO3,B,Nb,FALSE,1,5,0.27,0.64,cubic,-1.190,1.383,-0.001,12.499,1.744,3.968,3.968,3.968,90.0,90.0,90.0,4.310
BNdO3,B,Nd,FALSE,not balanced,not balanced,0.27,0.98,cubic,-0.297,3.001,-0.001,17.374,0.000,4.429,4.429,4.429,90.0,90.0,90.0,-4.950
BNiO3,B,Ni,FALSE,2,4,0.27,0.48,cubic,0.676,2.525,0.030,9.346,0.000,3.602,3.602,3.602,90.0,90.0,90.0,-5.604
BNpO3,B,Np,FALSE,element not in BV,element not in BV,0.27,0.86,cubic,-1.170,1.943,0.400,15.300,0.000,4.245,4.245,4.245,90.0,90.0,90.0,1.429
BOsO3,B,Os,FALSE,element not in BV,element not in BV,0.27,0.57,cubic,-0.029,1.805,-0.002,11.227,0.000,3.829,3.829,3.829,90.0,90.0,90.0,2.486
BPaO3,B,Pa,FALSE,element not in BV,element not in BV,0.27,0.91,cubic,-1.378,1.368,0.000,16.389,1.515,4.344,4.344,4.344,90.0,90.0,90.0,4.028
BPbO3,B,Pb,FALSE,2,4,0.27,0.78,cubic,0.559,2.534,-,14.833,0.000,4.201,4.201,4.201,90.0,90.0,90.0,-3.923
BPdO3,B,Pd,FALSE,2,4,0.27,0.62,cubic,0.797,2.368,-,11.579,0.000,3.868,3.868,3.868,90.0,90.0,90.0,-3.802
BPmO3,B,Pm,FALSE,element not in BV,element not in BV,0.27,0.97,cubic,-0.334,2.815,-0.008,17.312,0.000,4.424,4.424,4.424,90.0,90.0,90.0,-4.994
BPrO3,B,Pr,FALSE,2,4,0.27,0.85,cubic,-0.294,2.992,-0.407,17.629,0.000,4.450,4.450,4.450,90.0,90.0,90.0,-4.606
BPtO3,B,Pt,FALSE,element not in BV,element not in BV,0.27,0.67,cubic,0.667,2.327,0.006,11.790,0.000,3.892,3.892,3.892,90.0,90.0,90.0,-0.400
BPuO3,B,Pu,FALSE,element not in BV,element not in BV,0.27,0.83,cubic,-1.009,2.119,0.600,15.467,0.000,4.261,4.261,4.261,90.0,90.0,90.0,0.196
BRbO3,B,Rb,FALSE,not balanced,not balanced,0.27,1.52,cubic,1.836,3.871,-,16.155,0.000,4.323,4.323,4.323,90.0,90.0,90.0,-15.921
BReO3,B,Re,FALSE,1,5,0.27,0.58,cubic,-0.466,1.614,0.000,11.364,0.000,3.844,3.844,3.844,90.0,90.0,90.0,3.731
BRhO3,B,Rh,FALSE,2,4,0.27,0.60,cubic,0.416,2.194,0.223,11.270,0.000,3.834,3.834,3.834,90.0,90.0,90.0,-2.071
BRuO3,B,Ru,FALSE,1,5,0.27,0.57,cubic,0.072,1.954,0.014,11.119,0.000,3.817,3.817,3.817,90.0,90.0,90.0,1.369
BSbO3,B,Sb,FALSE,1,5,0.27,0.60,cubic,-0.284,1.817,-,11.918,0.000,3.906,3.906,3.906,90.0,90.0,90.0,2.348
BScO3,B,Sc,FALSE,not balanced,not balanced,0.27,0.75,cubic,-0.576,2.697,-0.001,13.367,0.000,4.058,4.058,4.058,90.0,90.0,90.0,-5.495
BSiO3,B,Si,FALSE,2,4,0.27,0.40,cubic,-0.837,1.894,-,8.357,0.000,3.470,3.470,3.470,90.0,90.0,90.0,0.590
BSmO3,B,Sm,FALSE,not balanced,not balanced,0.27,0.96,cubic,-0.410,2.913,-0.397,17.464,0.000,4.436,4.436,4.436,90.0,90.0,90.0,-4.459
BSnO3,B,Sn,FALSE,2,4,0.27,0.69,cubic,-0.053,2.164,-,13.101,0.000,4.031,4.031,4.031,90.0,90.0,90.0,-1.197
BSrO3,B,Sr,FALSE,not balanced,not balanced,0.27,1.18,cubic,0.660,3.408,-,18.084,0.000,4.488,4.488,4.488,90.0,90.0,90.0,-9.204
BTaO3,B,Ta,FALSE,1,5,0.27,0.64,cubic,-1.443,1.307,0.000,12.282,2.039,3.945,3.945,3.945,90.0,90.0,90.0,5.114
BTbO3,B,Tb,FALSE,2,4,0.27,0.76,cubic,-0.313,2.836,-0.010,16.383,0.000,4.343,4.343,4.343,90.0,90.0,90.0,-5.061
BTcO3,B,Tc,FALSE,element not in BV,element not in BV,0.27,0.60,cubic,-0.377,1.700,-0.002,11.233,0.000,3.830,3.830,3.830,90.0,90.0,90.0,3.031
BTeO3,B,Te,FALSE,2,4,0.27,0.97,cubic,0.034,1.930,-,12.935,0.000,4.014,4.014,4.014,90.0,90.0,90.0,1.175
BThO3,B,Th,FALSE,2,4,0.27,0.94,cubic,-1.216,2.234,-0.112,17.835,0.000,4.468,4.468,4.468,90.0,90.0,90.0,-0.903
BTiO3,B,Ti,FALSE,2,4,0.27,0.61,cubic,-0.984,1.888,-0.005,11.362,0.000,3.844,3.844,3.844,90.0,90.0,90.0,-1.490
BTlO3,B,Tl,FALSE,not balanced,not balanced,0.27,1.20,cubic,0.987,2.767,-,14.724,0.000,4.191,4.191,4.191,90.0,90.0,90.0,-5.993
BTmO3,B,Tm,FALSE,not balanced,not balanced,0.27,0.96,cubic,-0.539,2.738,0.002,15.502,0.000,4.264,4.264,4.264,90.0,90.0,90.0,-5.142
BUO3,B,U,FALSE,1,5,0.27,0.76,cubic,-1.577,1.601,0.200,15.778,1.741,4.289,4.289,4.289,90.0,90.0,90.0,4.164
BVO3,B,V,FALSE,1,5,0.27,0.54,cubic,-0.760,1.928,-0.001,10.263,0.000,3.716,3.716,3.716,90.0,90.0,90.0,0.246
BWO3,B,W,FALSE,1,5,0.27,0.62,cubic,-0.908,1.384,0.000,11.683,0.000,3.880,3.880,3.880,90.0,90.0,90.0,4.583
BYO3,B,Y,FALSE,not balanced,not balanced,0.27,0.90,cubic,-0.431,2.936,0.000,16.420,0.000,4.346,4.346,4.346,90.0,90.0,90.0,-5.185
BYbO3,B,Yb,FALSE,not balanced,not balanced,0.27,0.95,cubic,0.286,3.036,-,14.632,0.000,4.182,4.182,4.182,90.0,90.0,90.0,-7.777
BZnO3,B,Zn,FALSE,not balanced,not balanced,0.27,0.74,cubic,0.757,2.783,-,10.567,0.000,3.752,3.752,3.752,90.0,90.0,90.0,-7.790
BZrO3,B,Zr,FALSE,2,4,0.27,0.72,cubic,-1.084,1.999,0.001,14.199,0.000,4.141,4.141,4.141,90.0,90.0,90.0,-1.320
BaAcO3,Ba,Ac,FALSE,element not in BV,element not in BV,1.61,1.12,orthorhombic,-2.857,0.106,0.200,19.583,0.000,6.449,6.603,9.198,90.0,90.0,90.0,0.610
BaAgO3,Ba,Ag,FALSE,not balanced,not balanced,1.61,0.95,rhombohedral,-1.260,0.117,-,14.381,0.000,5.838,5.838,5.838,61.0,61.0,61.0,0.032
BaAlO3,Ba,Al,FALSE,not balanced,not balanced,1.61,0.54,cubic,-2.721,0.218,-,12.057,0.000,3.921,3.921,3.921,90.0,90.0,90.0,0.638
BaAsO3,Ba,As,FALSE,not balanced,not balanced,1.61,0.52,cubic,-2.060,0.282,-,13.200,0.000,4.041,4.041,4.041,90.0,90.0,90.0,2.226
BaAuO3,Ba,Au,FALSE,element not in BV,element not in BV,1.61,0.93,orthorhombic,-1.309,0.223,-,14.591,0.000,5.852,5.883,8.478,90.0,90.0,90.0,0.540
BaBO3,Ba,B,FALSE,not balanced,not balanced,1.61,0.27,cubic,-1.399,1.291,-,10.375,0.000,3.730,3.730,3.730,90.0,90.0,90.0,-1.864
Ba2O3,Ba,Ba,FALSE,not balanced,not balanced,1.61,1.35,cubic,-1.781,0.564,-,20.209,0.000,4.658,4.658,4.658,90.0,90.0,90.0,-0.983
BaBeO3,Ba,Be,FALSE,not balanced,not balanced,1.61,0.45,cubic,-1.820,0.638,-,11.231,0.000,3.829,3.829,3.829,90.0,90.0,90.0,-1.532
BaBiO3,Ba,Bi,FALSE,not balanced,not balanced,1.61,0.90,rhombohedral,-2.066,0.005,-,16.717,0.000,6.165,6.165,6.165,60.4,60.4,60.4,1.929
BaCaO3,Ba,Ca,FALSE,not balanced,not balanced,1.61,1.00,orthorhombic,-2.118,0.431,-,16.973,0.000,6.124,6.367,8.705,90.0,90.0,90.0,-1.090
BaCdO3,Ba,Cd,FALSE,not balanced,not balanced,1.61,0.95,orthorhombic,-1.482,0.284,-,15.259,0.000,5.953,6.062,8.457,90.0,90.0,90.0,-0.437
BaCeO3,Ba,Ce,TRUE,2,4,1.61,0.87,orthorhombic,-2.784,0.150,0.200,18.712,0.000,6.355,6.496,9.066,90.0,90.0,90.0,-0.006
BaCoO3,Ba,Co,FALSE,2,4,1.61,0.53,orthorhombic,-1.842,0.111,0.673,12.761,0.000,5.642,5.646,8.012,90.0,90.0,90.0,0.663
BaCrO3,Ba,Cr,FALSE,2,4,1.61,0.55,orthorhombic,-2.461,0.123,0.400,12.390,0.258,5.607,5.607,7.882,90.0,90.0,90.0,1.778