Chemical formula,A,B,In literature,Valence A,Valence B,Radius A [ang],Radius B [ang],Lowest distortion,Formation energy [eV/atom],Stability [eV/atom],Magnetic moment [mu_B],Volume per atom [A^3/atom],Band gap [eV],a [ang],b [ang],c [ang],alpha [deg],beta [deg],gamma [deg],Vacancy energy [eV/O atom]
CsTiO3,Cs,Ti,FALSE,not balanced,not balanced,1.88,0.71,tetragonal,-2.307,0.123,0.186,15.266,0.000,3.901,3.901,5.016,90.0,90.0,90.0,-0.798
CsTlO3,Cs,Tl,FALSE,not balanced,not balanced,1.88,1.20,orthorhombic,-0.567,0.465,-,17.835,0.000,6.399,6.400,8.710,90.0,90.0,90.0,-1.745
CsTmO3,Cs,Tm,FALSE,not balanced,not balanced,1.88,0.96,rhombohedral,-2.150,0.379,0.400,17.713,0.000,6.260,6.260,6.260,60.9,60.9,60.9,-0.703
CsUO3,Cs,U,FALSE,1,5,1.88,0.76,orthorhombic,-3.045,0.010,0.200,17.228,2.721,6.245,6.245,8.834,90.0,90.0,90.0,4.067
CsVO3,Cs,V,FALSE,not balanced,not balanced,1.88,0.64,cubic,-1.781,0.600,0.000,12.665,0.000,3.986,3.986,3.986,90.0,90.0,90.0,0.368
CsWO3,Cs,W,FALSE,not balanced,not balanced,1.88,0.63,tetragonal,-2.119,0.086,-0.001,16.497,0.000,3.879,3.879,5.483,90.0,90.0,90.0,4.755
CsYO3,Cs,Y,FALSE,not balanced,not balanced,1.88,0.90,cubic,-2.091,0.377,0.400,18.654,0.000,4.535,4.535,4.535,90.0,90.0,90.0,-0.732
CsYbO3,Cs,Yb,FALSE,not balanced,not balanced,1.88,0.95,cubic,-1.296,0.750,-,17.725,0.000,4.458,4.458,4.458,90.0,90.0,90.0,-1.530
CsZnO3,Cs,Zn,FALSE,not balanced,not balanced,1.88,0.74,cubic,-0.533,0.769,-,13.697,0.000,4.091,4.091,4.091,90.0,90.0,90.0,-2.463
CsZrO3,Cs,Zr,FALSE,not balanced,not balanced,1.88,0.72,cubic,-2.502,0.208,0.200,15.888,0.000,4.299,4.299,4.299,90.0,90.0,90.0,-0.121
CuAcO3,Cu,Ac,FALSE,element not in BV,element not in BV,0.68,1.12,rhombohedral,-2.023,0.218,0.401,16.494,0.297,6.531,6.531,6.531,53.1,53.1,53.1,-2.485
CuAgO3,Cu,Ag,FALSE,not balanced,not balanced,0.68,0.95,orthorhombic,-0.230,0.224,-,10.506,0.000,4.947,5.214,8.146,90.0,90.0,90.0,-3.439
CuAlO3,Cu,Al,FALSE,not balanced,not balanced,0.68,0.54,cubic,-1.398,0.557,-,9.647,0.000,3.640,3.640,3.640,90.0,90.0,90.0,-2.208
CuAsO3,Cu,As,FALSE,1,5,0.77,0.46,rhombohedral,-1.028,0.154,-,9.505,0.000,5.167,5.167,5.167,58.9,58.9,58.9,0.910
CuAuO3,Cu,Au,FALSE,element not in BV,element not in BV,0.68,0.93,cubic,0.382,0.845,-,12.838,0.000,4.004,4.004,4.004,90.0,90.0,90.0,-1.702
CuBO3,Cu,B,FALSE,3,3,0.54,0.27,cubic,-0.524,1.118,-,7.313,0.000,3.319,3.319,3.319,90.0,90.0,90.0,-3.221
CuBaO3,Cu,Ba,FALSE,not balanced,not balanced,0.68,1.35,orthorhombic,-1.435,0.159,-,15.514,0.000,5.484,6.298,8.984,90.0,90.0,90.0,-8.108
CuBeO3,Cu,Be,FALSE,not balanced,not balanced,0.68,0.45,cubic,-0.649,0.860,-,7.822,0.000,3.394,3.394,3.394,90.0,90.0,90.0,-3.966
CuBiO3,Cu,Bi,FALSE,1,5,0.77,0.76,rhombohedral,-0.999,0.095,-,12.822,0.000,5.752,5.752,5.752,57.9,57.9,57.9,-0.242
CuCaO3,Cu,Ca,FALSE,not balanced,not balanced,0.68,1.00,orthorhombic,-1.457,0.170,-,11.668,0.000,5.660,5.775,7.139,90.0,90.0,90.0,-
CuCdO3,Cu,Cd,FALSE,not balanced,not balanced,0.68,0.95,cubic,0.286,1.103,-,13.619,0.000,4.084,4.084,4.084,90.0,90.0,90.0,-5.395
CuCeO3,Cu,Ce,FALSE,not balanced,not balanced,0.68,0.94,rhombohedral,-1.953,0.204,0.400,15.973,0.464,6.703,6.703,6.703,49.4,49.4,49.4,-4.235
CuCoO3,Cu,Co,FALSE,2,4,0.73,0.53,cubic,-0.389,0.560,0.750,9.845,0.000,3.665,3.665,3.665,90.0,90.0,90.0,-1.005
CuCrO3,Cu,Cr,FALSE,1,5,0.77,0.49,cubic,-1.078,0.520,0.200,10.174,0.000,3.705,3.705,3.705,90.0,90.0,90.0,-0.457
CuCsO3,Cu,Cs,FALSE,not balanced,not balanced,0.68,1.67,cubic,0.678,1.677,-,16.147,0.000,4.322,4.322,4.322,90.0,90.0,90.0,-2.165
Cu2O3,Cu,Cu,FALSE,not balanced,not balanced,0.68,0.68,cubic,0.040,0.685,-,9.940,0.000,3.677,3.677,3.677,90.0,90.0,90.0,-3.296
CuDyO3,Cu,Dy,FALSE,not balanced,not balanced,0.68,0.99,rhombohedral,-2.062,0.267,0.400,13.329,0.373,6.017,6.017,6.017,54.2,54.2,54.2,-3.666
CuErO3,Cu,Er,FALSE,not balanced,not balanced,0.68,0.89,cubic,-1.258,1.090,-0.016,15.678,0.000,4.280,4.280,4.280,90.0,90.0,90.0,-4.064
CuEuO3,Cu,Eu,FALSE,not balanced,not balanced,0.68,1.06,orthorhombic,-1.738,0.104,0.200,12.733,0.000,4.838,5.894,8.931,90.0,90.0,90.0,-6.969
CuFeO3,Cu,Fe,FALSE,2,4,0.73,0.59,cubic,-0.649,0.508,0.959,10.271,0.000,3.717,3.717,3.717,90.0,90.0,90.0,-1.512
CuGaO3,Cu,Ga,FALSE,not balanced,not balanced,0.68,0.62,cubic,-0.625,0.748,-,10.951,0.000,3.797,3.797,3.797,90.0,90.0,90.0,-3.441
CuGdO3,Cu,Gd,FALSE,not balanced,not balanced,0.68,0.94,rhombohedral,-2.036,0.271,0.400,13.667,0.342,6.050,6.050,6.050,54.5,54.5,54.5,-4.248
CuGeO3,Cu,Ge,FALSE,2,4,0.73,0.53,cubic,-0.911,0.545,-,10.115,0.000,3.698,3.698,3.698,90.0,90.0,90.0,-0.446
CuHfO3,Cu,Hf,FALSE,not balanced,not balanced,0.68,0.71,cubic,-2.027,0.599,0.201,13.388,0.000,4.060,4.060,4.060,90.0,90.0,90.0,-0.592
CuHgO3,Cu,Hg,FALSE,not balanced,not balanced,0.68,1.11,orthorhombic,-0.195,0.309,-,11.600,0.000,5.176,5.352,8.375,90.0,90.0,90.0,-4.205
CuHoO3,Cu,Ho,FALSE,not balanced,not balanced,0.68,0.90,rhombohedral,-2.075,0.263,0.399,13.217,0.384,6.023,6.023,6.023,53.8,53.8,53.8,-3.538
CuInO3,Cu,In,FALSE,not balanced,not balanced,0.68,0.80,cubic,-0.280,0.964,-,13.835,0.000,4.105,4.105,4.105,90.0,90.0,90.0,-4.021
CuIrO3,Cu,Ir,FALSE,1,5,0.77,0.57,cubic,-0.389,0.572,0.248,11.438,0.000,3.853,3.853,3.853,90.0,90.0,90.0,0.844
CuKO3,Cu,K,FALSE,not balanced,not balanced,0.68,1.38,cubic,1.129,2.138,-,16.910,0.000,4.389,4.389,4.389,90.0,90.0,90.0,-4.542
CuLaO3,Cu,La,FALSE,not balanced,not balanced,0.68,1.03,rhombohedral,-2.025,0.239,0.400,15.024,0.263,6.195,6.195,6.195,55.4,55.4,55.4,-3.569
CuLiO3,Cu,Li,FALSE,not balanced,not balanced,0.68,0.76,cubic,0.142,1.197,-,8.729,0.000,3.521,3.521,3.521,90.0,90.0,90.0,-7.168
CuLuO3,Cu,Lu,FALSE,not balanced,not balanced,0.68,0.86,cubic,-1.336,0.991,-0.005,15.015,0.000,4.219,4.219,4.219,90.0,90.0,90.0,-3.845
CuMgO3,Cu,Mg,FALSE,not balanced,not balanced,0.68,0.72,cubic,-0.519,0.999,-,11.107,0.000,3.815,3.815,3.815,90.0,90.0,90.0,-4.654
CuMnO3,Cu,Mn,FALSE,2,4,0.73,0.53,cubic,-0.835,0.558,0.400,10.248,0.000,3.714,3.714,3.714,90.0,90.0,90.0,-1.681
CuMoO3,Cu,Mo,FALSE,1,5,0.77,0.61,rhombohedral,-1.645,0.089,0.000,10.565,0.000,5.484,5.484,5.484,55.9,55.9,55.9,3.985
CuNaO3,Cu,Na,FALSE,not balanced,not balanced,0.68,1.02,cubic,0.744,1.752,-,12.732,0.000,3.993,3.993,3.993,90.0,90.0,90.0,-11.780
CuNbO3,Cu,Nb,FALSE,1,5,0.77,0.64,rhombohedral,-2.121,0.066,0.000,11.121,0.787,5.590,5.590,5.590,55.7,55.7,55.7,4.362
CuNdO3,Cu,Nd,FALSE,not balanced,not balanced,0.68,0.98,rhombohedral,-1.961,0.298,0.400,14.573,0.356,6.164,6.164,6.164,54.8,54.8,54.8,-3.862
CuNiO3,Cu,Ni,FALSE,2,4,0.73,0.48,cubic,-0.121,0.698,0.558,9.833,0.000,3.663,3.663,3.663,90.0,90.0,90.0,-2.679
CuNpO3,Cu,Np,FALSE,element not in BV,element not in BV,0.68,0.86,cubic,-1.931,0.618,0.389,15.268,0.000,4.242,4.242,4.242,90.0,90.0,90.0,2.687
CuOsO3,Cu,Os,FALSE,element not in BV,element not in BV,0.68,0.57,rhombohedral,-1.000,0.045,0.001,10.191,0.000,5.277,5.277,5.277,59.1,59.1,59.1,2.299
CuPaO3,Cu,Pa,FALSE,element not in BV,element not in BV,0.68,0.91,rhombohedral,-2.425,-0.243,0.000,13.659,2.633,5.994,5.994,5.994,55.6,55.6,55.6,4.128
CuPbO3,Cu,Pb,FALSE,not balanced,not balanced,0.68,0.99,rhombohedral,-0.827,0.164,-,12.845,0.000,5.834,5.834,5.834,56.3,56.3,56.3,-2.508
CuPdO3,Cu,Pd,FALSE,not balanced,not balanced,0.68,0.75,cubic,0.086,0.699,-,11.833,0.000,3.897,3.897,3.897,90.0,90.0,90.0,-2.630
CuPmO3,Cu,Pm,FALSE,element not in BV,element not in BV,0.68,0.97,rhombohedral,-1.980,0.224,0.400,14.195,0.366,6.115,6.115,6.115,54.8,54.8,54.8,-3.828
CuPrO3,Cu,Pr,FALSE,not balanced,not balanced,0.68,0.92,rhombohedral,-1.938,0.234,0.400,14.773,0.342,6.179,6.179,6.179,55.1,55.1,55.1,-3.905
CuPtO3,Cu,Pt,FALSE,element not in BV,element not in BV,0.68,0.67,cubic,-0.034,0.733,0.318,11.993,0.000,3.914,3.914,3.914,90.0,90.0,90.0,-0.639
CuPuO3,Cu,Pu,FALSE,element not in BV,element not in BV,0.68,0.83,cubic,-1.756,0.523,0.601,15.125,0.801,4.229,4.229,4.229,90.0,90.0,90.0,0.726
CuRbO3,Cu,Rb,FALSE,not balanced,not balanced,0.68,1.52,cubic,1.095,2.094,-,15.595,0.000,4.272,4.272,4.272,90.0,90.0,90.0,-14.336
CuReO3,Cu,Re,FALSE,1,5,0.77,0.58,rhombohedral,-1.324,0.196,0.000,10.363,0.000,5.380,5.380,5.380,57.4,57.4,57.4,3.638
CuRhO3,Cu,Rh,FALSE,2,4,0.73,0.60,cubic,-0.302,0.643,0.453,11.424,0.000,3.851,3.851,3.851,90.0,90.0,90.0,-0.321
CuRuO3,Cu,Ru,FALSE,1,5,0.77,0.57,orthorhombic,-0.955,0.128,0.199,9.792,0.000,5.109,5.125,7.479,90.0,90.0,90.0,1.467
CuSbO3,Cu,Sb,FALSE,1,5,0.77,0.60,rhombohedral,-1.305,0.030,-,11.001,0.000,5.447,5.447,5.447,58.4,58.4,58.4,2.079
CuScO3,Cu,Sc,FALSE,not balanced,not balanced,0.68,0.75,cubic,-1.431,0.806,0.339,13.325,0.000,4.054,4.054,4.054,90.0,90.0,90.0,-3.057
CuSiO3,Cu,Si,FALSE,not balanced,not balanced,0.68,0.40,cubic,-1.607,0.559,-,8.578,0.000,3.500,3.500,3.500,90.0,90.0,90.0,0.450
CuSmO3,Cu,Sm,FALSE,not balanced,not balanced,0.68,0.96,rhombohedral,-1.991,0.274,0.399,14.041,0.368,6.098,6.098,6.098,54.7,54.7,54.7,-3.935
CuSnO3,Cu,Sn,FALSE,not balanced,not balanced,0.68,0.69,cubic,-0.828,0.666,-,12.973,0.000,4.018,4.018,4.018,90.0,90.0,90.0,-1.033
CuSrO3,Cu,Sr,FALSE,not balanced,not balanced,0.68,1.18,orthorhombic,-1.409,0.209,-,13.148,0.000,5.850,6.267,7.173,90.0,90.0,90.0,-8.824
CuTaO3,Cu,Ta,FALSE,1,5,0.77,0.64,orthorhombic,-2.320,0.077,0.000,10.912,1.360,5.233,5.456,7.643,90.0,90.0,90.0,5.237
CuTbO3,Cu,Tb,FALSE,not balanced,not balanced,0.68,0.84,rhombohedral,-1.918,0.224,0.399,13.473,0.366,6.037,6.037,6.037,54.3,54.3,54.3,-3.729
CuTcO3,Cu,Tc,FALSE,element not in BV,element not in BV,0.68,0.60,rhombohedral,-1.295,0.056,0.000,10.239,0.000,5.382,5.382,5.382,56.9,56.9,56.9,2.996
CuTeO3,Cu,Te,FALSE,2,4,0.73,0.97,rhombohedral,-0.951,0.151,-,11.749,0.000,5.602,5.602,5.602,57.6,57.6,57.6,1.048
CuThO3,Cu,Th,FALSE,not balanced,not balanced,0.68,0.94,cubic,-1.922,0.943,-0.029,17.768,0.000,4.462,4.462,4.462,90.0,90.0,90.0,-1.294
CuTiO3,Cu,Ti,FALSE,2,4,0.73,0.61,orthorhombic,-2.142,0.126,0.200,9.718,0.653,4.937,5.240,7.512,90.0,90.0,90.0,-0.660
CuTlO3,Cu,Tl,FALSE,not balanced,not balanced,0.68,1.20,rhombohedral,-0.494,0.297,-,13.088,0.000,5.863,5.863,5.863,56.5,56.5,56.5,-4.277
CuTmO3,Cu,Tm,FALSE,not balanced,not balanced,0.68,0.96,rhombohedral,-2.098,0.212,0.400,12.846,0.384,5.950,5.950,5.950,54.1,54.1,54.1,-4.013
CuUO3,Cu,U,FALSE,1,5,0.77,0.76,rhombohedral,-2.609,0.011,0.200,13.290,1.769,5.912,5.912,5.912,56.1,56.1,56.1,3.288
CuVO3,Cu,V,FALSE,1,5,0.77,0.54,orthorhombic,-1.737,0.111,0.000,9.480,0.343,4.949,5.134,7.463,90.0,90.0,90.0,1.779
CuWO3,Cu,W,FALSE,1,5,0.77,0.62,rhombohedral,-1.739,0.217,-0.001,10.669,0.000,5.500,5.500,5.500,56.0,56.0,56.0,4.639
CuYO3,Cu,Y,FALSE,not balanced,not balanced,0.68,0.90,rhombohedral,-2.041,0.266,0.401,13.364,0.370,6.027,6.027,6.027,54.1,54.1,54.1,-4.218
CuYbO3,Cu,Yb,FALSE,not balanced,not balanced,0.68,0.95,orthorhombic,-1.595,0.275,-,11.075,0.000,5.663,5.665,6.903,90.0,90.0,90.0,-6.856
CuZnO3,Cu,Zn,FALSE,not balanced,not balanced,0.68,0.74,cubic,-0.068,0.914,-,10.874,0.000,3.788,3.788,3.788,90.0,90.0,90.0,-4.296
CuZrO3,Cu,Zr,FALSE,not balanced,not balanced,0.68,0.72,cubic,-1.845,0.657,0.202,14.063,0.000,4.127,4.127,4.127,90.0,90.0,90.0,-1.012
DyAcO3,Dy,Ac,FALSE,element not in BV,element not in BV,1.08,1.12,cubic,-2.161,1.554,0.000,20.224,0.000,4.659,4.659,4.659,90.0,90.0,90.0,0.805
DyAgO3,Dy,Ag,FALSE,not balanced,not balanced,1.08,0.95,cubic,-1.432,0.605,0.000,12.953,0.000,4.016,4.016,4.016,90.0,90.0,90.0,-0.565
DyAlO3,Dy,Al,TRUE,3,3,1.08,0.54,orthorhombic,-3.588,-0.030,0.000,10.198,6.026,5.175,5.338,7.383,90.0,90.0,90.0,6.313
DyAsO3,Dy,As,FALSE,3,3,1.08,0.58,cubic,-1.907,0.782,0.000,12.687,0.000,3.988,3.988,3.988,90.0,90.0,90.0,2.144
DyAuO3,Dy,Au,FALSE,element not in BV,element not in BV,1.08,0.93,cubic,-1.292,0.774,0.000,13.694,0.000,4.091,4.091,4.091,90.0,90.0,90.0,-0.674
DyBO3,Dy,B,FALSE,not balanced,not balanced,1.08,0.27,cubic,-2.526,0.836,0.000,8.244,3.002,3.454,3.454,3.454,90.0,90.0,90.0,5.458
DyBaO3,Dy,Ba,FALSE,not balanced,not balanced,1.08,1.35,orthorhombic,-2.831,0.269,0.201,18.450,0.638,6.509,6.787,8.353,90.0,90.0,90.0,-7.677
DyBeO3,Dy,Be,FALSE,not balanced,not balanced,1.08,0.45,tetragonal,-2.799,0.312,0.042,9.515,0.000,3.311,3.311,4.341,90.0,90.0,90.0,-0.941
DyBiO3,Dy,Bi,FALSE,not balanced,not balanced,1.08,0.90,cubic,-1.518,1.144,0.000,16.579,0.000,4.360,4.360,4.360,90.0,90.0,90.0,0.786
DyCaO3,Dy,Ca,FALSE,not balanced,not balanced,1.08,1.00,cubic,-2.141,1.075,0.200,13.605,0.000,4.082,4.082,4.082,90.0,90.0,90.0,-2.929
DyCdO3,Dy,Cd,FALSE,not balanced,not balanced,1.08,0.95,cubic,-1.598,0.822,0.000,13.641,0.000,4.086,4.086,4.086,90.0,90.0,90.0,-1.035
DyCeO3,Dy,Ce,FALSE,2,4,1.19,0.87,cubic,-2.306,1.379,0.000,18.617,0.000,4.532,4.532,4.532,90.0,90.0,90.0,-3.241
DyCoO3,Dy,Co,TRUE,3,3,1.08,0.61,orthorhombic,-2.532,0.020,0.001,10.746,1.438,5.177,5.555,7.474,90.0,90.0,90.0,-
DyCrO3,Dy,Cr,TRUE,3,3,1.08,0.62,orthorhombic,-3.204,-0.038,0.600,11.115,2.524,5.265,5.569,7.582,90.0,90.0,90.0,4.239
DyCsO3,Dy,Cs,FALSE,not balanced,not balanced,1.08,1.67,-,-,-,-,-,-,-,-,-,-,-,-,-
DyCuO3,Dy,Cu,FALSE,3,3,1.08,0.54,orthorhombic,-2.282,0.047,0.000,10.964,0.256,5.205,5.860,7.189,90.0,90.0,90.0,0.680
Dy2O3,Dy,Dy,FALSE,not balanced,not balanced,1.08,0.99,cubic,-2.904,0.946,0.000,15.461,1.645,4.260,4.260,4.260,90.0,90.0,90.0,0.855
DyErO3,Dy,Er,FALSE,not balanced,not balanced,1.08,0.89,cubic,-3.004,0.869,0.000,14.941,1.781,4.212,4.212,4.212,90.0,90.0,90.0,1.611
DyEuO3,Dy,Eu,FALSE,not balanced,not balanced,1.08,1.06,cubic,-2.131,1.152,0.105,15.365,0.000,4.251,4.251,4.251,90.0,90.0,90.0,-2.368
DyFeO3,Dy,Fe,TRUE,3,3,1.08,0.65,orthorhombic,-2.782,-0.033,1.000,11.252,1.179,5.283,5.597,7.611,90.0,90.0,90.0,3.193
DyGaO3,Dy,Ga,FALSE,3,3,1.08,0.62,orthorhombic,-2.972,0.017,0.000,11.058,4.078,5.263,5.558,7.560,90.0,90.0,90.0,4.452
DyGdO3,Dy,Gd,FALSE,not balanced,not balanced,1.08,0.94,cubic,-2.789,1.032,0.000,16.035,1.310,4.312,4.312,4.312,90.0,90.0,90.0,0.097
DyGeO3,Dy,Ge,FALSE,2,4,1.19,0.53,cubic,-2.216,0.609,0.000,11.572,0.000,3.868,3.868,3.868,90.0,90.0,90.0,2.802
DyHfO3,Dy,Hf,FALSE,2,4,1.19,0.71,cubic,-3.131,0.522,0.000,13.456,0.000,4.067,4.067,4.067,90.0,90.0,90.0,4.507
DyHgO3,Dy,Hg,FALSE,not balanced,not balanced,1.08,1.11,cubic,-1.177,0.930,0.000,14.656,0.000,4.185,4.185,4.185,90.0,90.0,90.0,-0.976
DyHoO3,Dy,Ho,FALSE,not balanced,not balanced,1.08,0.90,cubic,-2.956,0.906,0.000,15.202,1.781,4.236,4.236,4.236,90.0,90.0,90.0,1.312
DyInO3,Dy,In,FALSE,not balanced,not balanced,1.08,0.80,cubic,-2.146,0.701,0.000,13.544,1.635,4.076,4.076,4.076,90.0,90.0,90.0,2.656
DyIrO3,Dy,Ir,FALSE,2,4,1.19,0.63,cubic,-1.646,0.758,0.000,12.315,0.000,3.949,3.949,3.949,90.0,90.0,90.0,-0.915
DyKO3,Dy,K,FALSE,not balanced,not balanced,1.08,1.38,orthorhombic,-2.051,0.452,0.400,17.952,0.000,5.932,5.968,10.141,90.0,90.0,90.0,-3.943
DyLaO3,Dy,La,FALSE,not balanced,not balanced,1.08,1.03,cubic,-2.427,1.354,0.000,18.299,0.000,4.506,4.506,4.506,90.0,90.0,90.0,2.068
DyLiO3,Dy,Li,FALSE,not balanced,not balanced,1.08,0.76,orthorhombic,-2.281,0.326,0.400,10.375,0.000,4.991,5.762,7.215,90.0,90.0,90.0,-1.307
DyLuO3,Dy,Lu,FALSE,not balanced,not balanced,1.08,0.86,cubic,-3.148,0.758,0.000,14.264,2.163,4.147,4.147,4.147,90.0,90.0,90.0,4.616
DyMgO3,Dy,Mg,FALSE,not balanced,not balanced,1.08,0.72,orthorhombic,-2.927,0.185,0.201,11.421,0.000,5.385,5.727,7.406,90.0,90.0,90.0,-1.468
DyMnO3,Dy,Mn,TRUE,2,4,1.19,0.53,orthorhombic,-2.960,0.024,0.800,11.308,0.262,5.281,5.721,7.486,90.0,90.0,90.0,3.481
DyMoO3,Dy,Mo,FALSE,2,4,1.19,0.65,cubic,-2.278,0.616,0.005,12.338,0.000,3.951,3.951,3.951,90.0,90.0,90.0,1.680
DyNaO3,Dy,Na,FALSE,not balanced,not balanced,1.08,1.02,cubic,-1.441,1.064,0.399,12.005,0.000,3.915,3.915,3.915,90.0,90.0,90.0,-2.833
DyNbO3,Dy,Nb,FALSE,2,4,1.19,0.68,cubic,-2.601,0.614,0.001,13.018,0.000,4.023,4.023,4.023,90.0,90.0,90.0,3.104
DyNdO3,Dy,Nd,FALSE,not balanced,not balanced,1.08,0.98,cubic,-2.487,1.248,0.000,17.598,0.497,4.448,4.448,4.448,90.0,90.0,90.0,-1.117
DyNiO3,Dy,Ni,TRUE,3,3,1.08,0.60,orthorhombic,-2.408,0.013,0.200,10.539,0.000,5.166,5.518,7.395,90.0,90.0,90.0,1.062
DyNpO3,Dy,Np,FALSE,element not in BV,element not in BV,1.08,0.86,cubic,-2.574,1.092,0.776,17.072,0.000,4.403,4.403,4.403,90.0,90.0,90.0,2.464
DyOsO3,Dy,Os,FALSE,element not in BV,element not in BV,1.08,0.57,cubic,-1.693,0.755,0.007,12.181,0.000,3.934,3.934,3.934,90.0,90.0,90.0,0.061
DyPaO3,Dy,Pa,FALSE,element not in BV,element not in BV,1.08,0.91,cubic,-2.380,0.939,0.284,17.755,0.000,4.461,4.461,4.461,90.0,90.0,90.0,2.637
DyPbO3,Dy,Pb,FALSE,2,4,1.19,0.78,cubic,-1.500,1.042,0.000,15.731,0.000,4.285,4.285,4.285,90.0,90.0,90.0,0.598
DyPdO3,Dy,Pd,FALSE,2,4,1.19,0.62,orthorhombic,-2.205,-0.020,0.005,11.872,0.000,5.378,5.881,7.508,90.0,90.0,90.0,-0.109
DyPmO3,Dy,Pm,FALSE,element not in BV,element not in BV,1.08,0.97,cubic,-2.578,1.185,0.000,17.123,0.692,4.407,4.407,4.407,90.0,90.0,90.0,-1.450
DyPrO3,Dy,Pr,FALSE,2,4,1.19,0.85,cubic,-2.403,1.310,0.000,18.062,0.321,4.487,4.487,4.487,90.0,90.0,90.0,-2.614
DyPtO3,Dy,Pt,FALSE,element not in BV,element not in BV,1.08,0.67,cubic,-1.556,0.717,0.000,12.892,0.000,4.010,4.010,4.010,90.0,90.0,90.0,-0.555
DyPuO3,Dy,Pu,FALSE,element not in BV,element not in BV,1.08,0.83,cubic,-2.624,1.117,0.914,16.572,0.000,4.360,4.360,4.360,90.0,90.0,90.0,2.792
DyRbO3,Dy,Rb,FALSE,not balanced,not balanced,1.08,1.52,orthorhombic,-2.017,0.476,0.400,19.470,0.000,5.891,6.009,11.001,90.0,90.0,90.0,-8.219
DyReO3,Dy,Re,FALSE,2,4,1.19,0.63,cubic,-1.905,0.788,0.162,12.263,0.000,3.943,3.943,3.943,90.0,90.0,90.0,0.216
DyRhO3,Dy,Rh,TRUE,2,4,1.19,0.60,cubic,-1.855,0.537,0.000,11.974,0.000,3.912,3.912,3.912,90.0,90.0,90.0,-
DyRuO3,Dy,Ru,FALSE,2,4,1.19,0.62,cubic,-1.910,0.585,0.128,11.963,0.000,3.911,3.911,3.911,90.0,90.0,90.0,0.667
DySbO3,Dy,Sb,FALSE,3,3,1.08,0.76,cubic,-1.734,0.980,0.000,14.845,0.000,4.203,4.203,4.203,90.0,90.0,90.0,0.890
DyScO3,Dy,Sc,TRUE,3,3,1.08,0.75,orthorhombic,-3.803,0.026,0.000,12.208,4.690,5.422,5.711,7.886,90.0,90.0,90.0,5.050
DySiO3,Dy,Si,FALSE,3,3,1.08,0.40,cubic,-2.642,0.667,0.001,9.983,0.000,3.682,3.682,3.682,90.0,90.0,90.0,4.576
DySmO3,Dy,Sm,FALSE,not balanced,not balanced,1.08,0.96,cubic,-2.635,1.141,0.000,16.805,0.893,4.380,4.380,4.380,90.0,90.0,90.0,-1.020
DySnO3,Dy,Sn,FALSE,2,4,1.19,0.69,cubic,-2.010,0.843,0.000,13.812,0.000,4.103,4.103,4.103,90.0,90.0,90.0,2.274
DySrO3,Dy,Sr,FALSE,not balanced,not balanced,1.08,1.18,orthorhombic,-2.905,0.257,0.200,16.660,0.000,5.809,5.823,9.850,90.0,90.0,90.0,-3.729
DyTaO3,Dy,Ta,FALSE,2,4,1.19,0.68,cubic,-2.680,0.648,0.001,12.815,0.000,4.002,4.002,4.002,90.0,90.0,90.0,3.128
DyTbO3,Dy,Tb,FALSE,2,4,1.19,0.76,cubic,-2.717,0.988,0.000,15.738,1.366,4.285,4.285,4.285,90.0,90.0,90.0,0.427
DyTcO3,Dy,Tc,FALSE,element not in BV,element not in BV,1.08,0.60,cubic,-2.083,0.607,0.313,12.141,0.000,3.930,3.930,3.930,90.0,90.0,90.0,1.165
DyTeO3,Dy,Te,FALSE,2,4,1.19,0.97,cubic,-1.422,1.134,0.003,15.137,0.000,4.230,4.230,4.230,90.0,90.0,90.0,0.801
DyThO3,Dy,Th,FALSE,2,4,1.19,0.94,cubic,-2.775,1.057,0.024,18.860,0.000,4.552,4.552,4.552,90.0,90.0,90.0,2.410
DyTiO3,Dy,Ti,TRUE,2,4,1.19,0.61,orthorhombic,-3.464,0.022,0.200,11.460,0.000,5.299,5.668,7.630,90.0,90.0,90.0,4.715
DyTlO3,Dy,Tl,FALSE,not balanced,not balanced,1.08,1.20,cubic,-1.444,0.950,0.000,15.158,0.000,4.232,4.232,4.232,90.0,90.0,90.0,0.545
DyTmO3,Dy,Tm,FALSE,not balanced,not balanced,1.08,0.96,cubic,-3.066,0.825,0.000,14.691,1.924,4.188,4.188,4.188,90.0,90.0,90.0,2.116
DyUO3,Dy,U,FALSE,2,4,1.19,0.89,cubic,-2.574,1.070,0.548,16.889,0.000,4.387,4.387,4.387,90.0,90.0,90.0,2.268
DyVO3,Dy,V,TRUE,2,4,1.19,0.58,orthorhombic,-3.271,-0.030,0.400,11.416,1.112,5.296,5.659,7.618,90.0,90.0,90.0,3.989
DyWO3,Dy,W,FALSE,2,4,1.19,0.66,cubic,-2.199,0.743,0.001,12.402,0.000,3.958,3.958,3.958,90.0,90.0,90.0,1.216
DyYO3,Dy,Y,FALSE,not balanced,not balanced,1.08,0.90,cubic,-2.881,0.948,-0.001,15.453,1.803,4.259,4.259,4.259,90.0,90.0,90.0,0.899
DyYbO3,Dy,Yb,FALSE,not balanced,not balanced,1.08,0.95,cubic,-2.384,0.944,0.200,13.713,0.000,4.093,4.093,4.093,90.0,90.0,90.0,-1.931
DyZnO3,Dy,Zn,FALSE,not balanced,not balanced,1.08,0.74,orthorhombic,-2.449,0.136,0.000,11.279,0.000,5.237,5.775,7.459,90.0,90.0,90.0,-0.224