Chemical formula,A,B,In literature,Valence A,Valence B,Radius A [ang],Radius B [ang],Lowest distortion,Formation energy [eV/atom],Stability [eV/atom],Magnetic moment [mu_B],Volume per atom [A^3/atom],Band gap [eV],a [ang],b [ang],c [ang],alpha [deg],beta [deg],gamma [deg],Vacancy energy [eV/O atom]
ZrHgO3,Zr,Hg,FALSE,not balanced,not balanced,0.89,1.11,cubic,-0.404,1.957,0.186,14.463,0.000,4.166,4.166,4.166,90.0,90.0,90.0,-3.610
ZrHoO3,Zr,Ho,FALSE,not balanced,not balanced,0.89,0.90,cubic,-2.203,1.378,0.200,15.018,0.000,4.219,4.219,4.219,90.0,90.0,90.0,-3.165
ZrInO3,Zr,In,FALSE,not balanced,not balanced,0.89,0.80,cubic,-1.393,1.401,0.179,13.524,0.000,4.074,4.074,4.074,90.0,90.0,90.0,-
ZrIrO3,Zr,Ir,FALSE,1,5,0.89,0.57,cubic,-0.972,1.527,0.010,12.049,0.000,3.920,3.920,3.920,90.0,90.0,90.0,-2.228
ZrKO3,Zr,K,FALSE,not balanced,not balanced,0.89,1.38,orthorhombic,-2.492,0.267,0.200,16.137,1.041,6.463,6.889,7.249,90.0,90.0,90.0,-11.897
ZrLaO3,Zr,La,FALSE,not balanced,not balanced,0.89,1.03,orthorhombic,-3.197,0.356,0.000,14.870,0.000,6.013,6.179,8.004,90.0,90.0,90.0,-8.803
ZrLiO3,Zr,Li,FALSE,not balanced,not balanced,0.89,0.76,cubic,-1.965,0.890,0.200,8.605,0.000,3.504,3.504,3.504,90.0,90.0,90.0,-2.664
ZrLuO3,Zr,Lu,FALSE,not balanced,not balanced,0.89,0.86,cubic,-2.399,1.226,0.193,14.065,0.000,4.128,4.128,4.128,90.0,90.0,90.0,-2.884
ZrMgO3,Zr,Mg,FALSE,not balanced,not balanced,0.89,0.72,cubic,-2.360,0.998,0.000,10.170,0.718,3.705,3.705,3.705,90.0,90.0,90.0,0.770
ZrMnO3,Zr,Mn,FALSE,3,3,0.89,0.65,cubic,-1.956,1.039,0.718,10.942,0.000,3.796,3.796,3.796,90.0,90.0,90.0,1.759
ZrMoO3,Zr,Mo,FALSE,1,5,0.89,0.61,cubic,-1.674,1.152,0.283,12.107,0.000,3.927,3.927,3.927,90.0,90.0,90.0,0.236
ZrNaO3,Zr,Na,FALSE,not balanced,not balanced,0.89,1.02,orthorhombic,-2.521,0.261,0.052,13.311,0.000,5.230,5.344,9.525,90.0,90.0,90.0,-4.743
ZrNbO3,Zr,Nb,FALSE,1,5,0.89,0.64,cubic,-2.020,1.021,0.337,12.861,0.000,4.006,4.006,4.006,90.0,90.0,90.0,1.704
ZrNdO3,Zr,Nd,FALSE,not balanced,not balanced,0.89,0.98,cubic,-1.733,1.755,0.200,17.463,0.000,4.436,4.436,4.436,90.0,90.0,90.0,-7.217
ZrNiO3,Zr,Ni,FALSE,3,3,0.89,0.60,cubic,-1.735,0.941,0.340,9.999,0.000,3.684,3.684,3.684,90.0,90.0,90.0,0.886
ZrNpO3,Zr,Np,FALSE,element not in BV,element not in BV,0.89,0.86,orthorhombic,-3.136,0.248,0.858,14.138,0.000,6.100,6.171,7.512,90.0,90.0,90.0,3.010
ZrOsO3,Zr,Os,FALSE,element not in BV,element not in BV,0.89,0.57,cubic,-1.069,1.459,0.012,11.866,0.000,3.900,3.900,3.900,90.0,90.0,90.0,-1.742
ZrPaO3,Zr,Pa,FALSE,element not in BV,element not in BV,0.89,0.91,cubic,-1.884,1.226,0.591,16.831,0.000,4.382,4.382,4.382,90.0,90.0,90.0,1.995
ZrPbO3,Zr,Pb,FALSE,not balanced,not balanced,0.89,0.99,orthorhombic,-2.142,0.567,0.000,14.127,0.000,5.773,5.778,8.471,90.0,90.0,90.0,-
ZrPdO3,Zr,Pd,FALSE,not balanced,not balanced,0.89,0.75,cubic,-1.022,1.417,0.011,12.151,0.000,3.931,3.931,3.931,90.0,90.0,90.0,-1.494
ZrPmO3,Zr,Pm,FALSE,element not in BV,element not in BV,0.89,0.97,cubic,-1.822,1.661,0.200,16.920,0.000,4.390,4.390,4.390,90.0,90.0,90.0,-6.026
ZrPrO3,Zr,Pr,FALSE,not balanced,not balanced,0.89,0.92,orthorhombic,-3.140,0.332,0.000,14.625,0.000,6.054,6.148,7.859,90.0,90.0,90.0,-8.028
ZrPtO3,Zr,Pt,FALSE,element not in BV,element not in BV,0.89,0.67,cubic,-0.830,1.587,0.087,12.697,0.000,3.989,3.989,3.989,90.0,90.0,90.0,-2.663
ZrPuO3,Zr,Pu,FALSE,element not in BV,element not in BV,0.89,0.83,cubic,-2.051,1.409,1.200,16.274,0.000,4.333,4.333,4.333,90.0,90.0,90.0,-4.900
ZrRbO3,Zr,Rb,FALSE,not balanced,not balanced,0.89,1.52,orthorhombic,-2.464,0.201,0.200,17.128,1.244,6.546,7.221,7.247,90.0,90.0,90.0,-16.391
ZrReO3,Zr,Re,FALSE,1,5,0.89,0.58,cubic,-1.308,1.385,0.209,11.976,0.000,3.912,3.912,3.912,90.0,90.0,90.0,-0.946
ZrRhO3,Zr,Rh,FALSE,3,3,0.89,0.67,cubic,-1.202,1.289,0.001,11.744,0.000,3.887,3.887,3.887,90.0,90.0,90.0,-1.402
ZrRuO3,Zr,Ru,FALSE,1,5,0.89,0.57,cubic,-1.281,1.279,0.000,11.625,0.000,3.874,3.874,3.874,90.0,90.0,90.0,-1.215
ZrSbO3,Zr,Sb,FALSE,1,5,0.89,0.60,cubic,-1.109,1.597,0.389,14.235,0.000,4.144,4.144,4.144,90.0,90.0,90.0,-2.002
ZrScO3,Zr,Sc,FALSE,not balanced,not balanced,0.89,0.75,cubic,-2.585,0.963,0.140,12.372,0.000,3.955,3.955,3.955,90.0,90.0,90.0,-0.591
ZrSiO3,Zr,Si,FALSE,2,4,0.89,0.40,cubic,-2.058,1.074,0.247,9.550,0.000,3.628,3.628,3.628,90.0,90.0,90.0,2.891
ZrSmO3,Zr,Sm,FALSE,not balanced,not balanced,0.89,0.96,cubic,-1.879,1.630,0.200,16.665,0.000,4.368,4.368,4.368,90.0,90.0,90.0,-3.259
ZrSnO3,Zr,Sn,FALSE,not balanced,not balanced,0.89,0.69,orthorhombic,-2.367,0.428,0.000,15.092,0.822,5.909,6.048,8.446,90.0,90.0,90.0,1.196
ZrSrO3,Zr,Sr,FALSE,not balanced,not balanced,0.89,1.18,orthorhombic,-3.229,0.272,0.000,15.972,3.500,5.870,5.966,9.123,90.0,90.0,90.0,-10.761
ZrTaO3,Zr,Ta,FALSE,1,5,0.89,0.64,cubic,-2.140,0.916,0.369,12.683,0.000,3.988,3.988,3.988,90.0,90.0,90.0,2.082
ZrTbO3,Zr,Tb,FALSE,not balanced,not balanced,0.89,0.84,cubic,-1.963,1.462,0.200,15.572,0.000,4.270,4.270,4.270,90.0,90.0,90.0,-5.312
ZrTcO3,Zr,Tc,FALSE,element not in BV,element not in BV,0.89,0.60,cubic,-1.448,1.242,0.131,11.751,0.000,3.888,3.888,3.888,90.0,90.0,90.0,-0.429
ZrTeO3,Zr,Te,FALSE,not balanced,not balanced,0.89,0.77,cubic,-0.830,1.742,0.382,14.822,0.000,4.200,4.200,4.200,90.0,90.0,90.0,-2.209
ZrThO3,Zr,Th,FALSE,not balanced,not balanced,0.89,0.94,cubic,-2.210,1.441,0.398,18.669,0.000,4.536,4.536,4.536,90.0,90.0,90.0,0.652
ZrTiO3,Zr,Ti,FALSE,2,4,0.89,0.61,cubic,-2.535,0.742,0.178,11.325,0.000,3.840,3.840,3.840,90.0,90.0,90.0,2.821
ZrTlO3,Zr,Tl,FALSE,not balanced,not balanced,0.89,1.20,orthorhombic,-2.139,0.386,0.001,14.796,0.000,6.066,6.094,8.007,90.0,90.0,90.0,-2.018
ZrTmO3,Zr,Tm,FALSE,not balanced,not balanced,0.89,0.96,cubic,-2.315,1.295,0.200,14.496,0.000,4.169,4.169,4.169,90.0,90.0,90.0,-3.645
ZrUO3,Zr,U,FALSE,1,5,0.89,0.76,orthorhombic,-3.052,0.348,0.644,14.514,0.000,6.103,6.358,7.481,90.0,90.0,90.0,-1.560
ZrVO3,Zr,V,FALSE,1,5,0.89,0.54,cubic,-2.208,0.876,0.543,11.093,0.000,3.814,3.814,3.814,90.0,90.0,90.0,2.395
ZrWO3,Zr,W,FALSE,1,5,0.89,0.62,cubic,-1.637,1.196,0.339,12.200,0.000,3.936,3.936,3.936,90.0,90.0,90.0,0.191
ZrYO3,Zr,Y,FALSE,not balanced,not balanced,0.89,0.90,cubic,-2.126,1.422,0.200,15.277,0.000,4.243,4.243,4.243,90.0,90.0,90.0,-4.920
ZrYbO3,Zr,Yb,FALSE,not balanced,not balanced,0.89,0.95,orthorhombic,-3.455,0.205,0.000,13.136,4.007,5.558,5.726,8.254,90.0,90.0,90.0,-6.177
ZrZnO3,Zr,Zn,FALSE,not balanced,not balanced,0.89,0.74,cubic,-1.630,1.210,0.001,10.804,0.000,3.780,3.780,3.780,90.0,90.0,90.0,-0.762
Zr2O3,Zr,Zr,FALSE,not balanced,not balanced,0.89,0.72,cubic,-2.382,0.906,0.382,13.915,0.000,4.113,4.113,4.113,90.0,90.0,90.0,3.218