Chemical formula,A,B,In literature,Valence A,Valence B,Radius A [ang],Radius B [ang],Lowest distortion,Formation energy [eV/atom],Stability [eV/atom],Magnetic moment [mu_B],Volume per atom [A^3/atom],Band gap [eV],a [ang],b [ang],c [ang],alpha [deg],beta [deg],gamma [deg],Vacancy energy [eV/O atom]
GdInO3,Gd,In,FALSE,3,3,1.11,0.80,cubic,-2.182,0.636,0.000,13.283,1.499,4.050,4.050,4.050,90.0,90.0,90.0,2.787
GdIrO3,Gd,Ir,FALSE,2,4,1.11,0.63,cubic,-1.696,0.680,0.000,12.398,0.000,3.958,3.958,3.958,90.0,90.0,90.0,-0.662
GdKO3,Gd,K,FALSE,not balanced,not balanced,1.11,1.38,orthorhombic,-2.024,0.449,0.400,18.295,0.000,6.012,6.054,10.052,90.0,90.0,90.0,-3.780
GdLaO3,Gd,La,FALSE,3,3,1.11,1.03,cubic,-2.493,1.259,0.000,18.403,0.402,4.515,4.515,4.515,90.0,90.0,90.0,-2.660
GdLiO3,Gd,Li,FALSE,not balanced,not balanced,1.11,0.76,orthorhombic,-2.269,0.310,0.400,10.592,0.000,5.000,5.798,7.308,90.0,90.0,90.0,-1.128
GdLuO3,Gd,Lu,FALSE,3,3,1.11,0.86,cubic,-3.203,0.674,0.000,14.345,1.993,4.155,4.155,4.155,90.0,90.0,90.0,4.720
GdMgO3,Gd,Mg,FALSE,not balanced,not balanced,1.11,0.72,orthorhombic,-2.910,0.174,0.200,11.581,0.000,5.347,5.732,7.558,90.0,90.0,90.0,-1.244
GdMnO3,Gd,Mn,TRUE,3,3,1.11,0.65,orthorhombic,-2.944,0.002,0.800,11.491,0.230,5.319,5.740,7.527,90.0,90.0,90.0,3.600
GdMoO3,Gd,Mo,FALSE,3,3,1.11,0.69,cubic,-2.330,0.550,0.005,12.400,0.000,3.958,3.958,3.958,90.0,90.0,90.0,1.977
GdNaO3,Gd,Na,FALSE,not balanced,not balanced,1.11,1.02,cubic,-1.489,0.996,0.400,12.166,0.000,3.933,3.933,3.933,90.0,90.0,90.0,-2.569
GdNbO3,Gd,Nb,FALSE,3,3,1.11,0.72,cubic,-2.654,0.539,0.001,13.069,0.000,4.028,4.028,4.028,90.0,90.0,90.0,3.349
GdNdO3,Gd,Nd,FALSE,3,3,1.11,0.98,cubic,-2.551,1.155,0.000,17.658,0.780,4.453,4.453,4.453,90.0,90.0,90.0,-1.457
GdNiO3,Gd,Ni,TRUE,3,3,1.11,0.60,orthorhombic,-2.390,0.003,0.200,10.708,0.000,5.216,5.505,7.459,90.0,90.0,90.0,1.181
GdNpO3,Gd,Np,FALSE,element not in BV,element not in BV,1.11,0.86,cubic,-2.632,1.005,0.789,17.306,0.000,4.423,4.423,4.423,90.0,90.0,90.0,2.533
GdOsO3,Gd,Os,FALSE,element not in BV,element not in BV,1.11,0.57,cubic,-1.743,0.698,0.005,12.242,0.000,3.941,3.941,3.941,90.0,90.0,90.0,0.333
GdPaO3,Gd,Pa,FALSE,element not in BV,element not in BV,1.11,0.91,cubic,-2.426,0.864,0.295,17.779,0.000,4.463,4.463,4.463,90.0,90.0,90.0,2.874
GdPbO3,Gd,Pb,FALSE,2,4,1.11,0.78,cubic,-1.554,0.960,0.000,15.508,0.000,4.264,4.264,4.264,90.0,90.0,90.0,0.631
GdPdO3,Gd,Pd,FALSE,2,4,1.11,0.62,orthorhombic,-2.194,0.036,0.003,12.113,0.000,5.423,5.911,7.558,90.0,90.0,90.0,0.096
GdPmO3,Gd,Pm,FALSE,element not in BV,element not in BV,1.11,0.97,cubic,-2.641,1.093,0.000,17.185,1.137,4.413,4.413,4.413,90.0,90.0,90.0,-0.871
GdPrO3,Gd,Pr,FALSE,3,3,1.11,0.99,cubic,-2.468,1.217,0.000,18.130,0.601,4.492,4.492,4.492,90.0,90.0,90.0,-2.045
GdPtO3,Gd,Pt,FALSE,element not in BV,element not in BV,1.11,0.67,cubic,-1.608,0.636,0.000,12.949,0.000,4.015,4.015,4.015,90.0,90.0,90.0,-0.367
GdPuO3,Gd,Pu,FALSE,element not in BV,element not in BV,1.11,0.83,cubic,-2.673,1.040,0.947,16.632,0.000,4.365,4.365,4.365,90.0,90.0,90.0,0.039
GdRbO3,Gd,Rb,FALSE,not balanced,not balanced,1.11,1.52,orthorhombic,-1.993,0.472,0.400,19.903,0.000,6.026,6.051,10.916,90.0,90.0,90.0,-3.254
GdReO3,Gd,Re,FALSE,3,3,1.11,0.63,cubic,-1.956,0.757,0.162,12.322,0.000,3.950,3.950,3.950,90.0,90.0,90.0,0.537
GdRhO3,Gd,Rh,TRUE,3,3,1.11,0.67,orthorhombic,-2.408,-0.044,0.000,11.717,0.966,5.291,5.787,7.654,90.0,90.0,90.0,0.071
GdRuO3,Gd,Ru,FALSE,2,4,1.11,0.62,cubic,-1.957,0.526,0.121,12.032,0.000,3.918,3.918,3.918,90.0,90.0,90.0,0.899
GdSbO3,Gd,Sb,FALSE,3,3,1.11,0.76,cubic,-1.794,0.957,-0.001,14.940,0.000,4.212,4.212,4.212,90.0,90.0,90.0,1.234
GdScO3,Gd,Sc,TRUE,3,3,1.11,0.75,orthorhombic,-3.789,0.011,0.000,12.399,4.618,5.462,5.744,7.903,90.0,90.0,90.0,5.136
GdSiO3,Gd,Si,FALSE,3,3,1.11,0.40,cubic,-2.666,0.681,0.000,10.145,0.000,3.702,3.702,3.702,90.0,90.0,90.0,4.651
GdSmO3,Gd,Sm,FALSE,3,3,1.11,0.96,cubic,-2.697,1.050,0.000,16.867,1.343,4.385,4.385,4.385,90.0,90.0,90.0,-0.462
GdSnO3,Gd,Sn,FALSE,2,4,1.11,0.69,cubic,-2.062,0.777,0.000,13.873,0.000,4.109,4.109,4.109,90.0,90.0,90.0,2.372
GdSrO3,Gd,Sr,FALSE,not balanced,not balanced,1.11,1.18,orthorhombic,-2.867,0.266,0.108,16.796,0.000,5.868,5.882,9.732,90.0,90.0,90.0,-3.373
GdTaO3,Gd,Ta,FALSE,3,3,1.11,0.72,cubic,-2.731,0.577,0.001,12.860,0.000,4.006,4.006,4.006,90.0,90.0,90.0,3.388
GdTbO3,Gd,Tb,FALSE,3,3,1.11,0.92,cubic,-2.778,0.899,0.000,15.810,1.582,4.292,4.292,4.292,90.0,90.0,90.0,1.004
GdTcO3,Gd,Tc,FALSE,element not in BV,element not in BV,1.11,0.60,cubic,-2.132,0.529,0.314,12.216,0.000,3.938,3.938,3.938,90.0,90.0,90.0,1.449
GdTeO3,Gd,Te,FALSE,2,4,1.11,0.97,cubic,-1.480,1.067,0.003,15.202,0.000,4.236,4.236,4.236,90.0,90.0,90.0,0.972
GdThO3,Gd,Th,FALSE,not balanced,not balanced,1.11,0.94,cubic,-2.822,0.985,0.011,18.865,0.000,4.552,4.552,4.552,90.0,90.0,90.0,2.501
GdTiO3,Gd,Ti,TRUE,2,4,1.11,0.61,orthorhombic,-3.450,0.036,0.200,11.654,0.000,5.341,5.687,7.675,90.0,90.0,90.0,4.865
GdTlO3,Gd,Tl,FALSE,3,3,1.11,0.89,orthorhombic,-2.271,0.094,0.001,14.239,1.120,5.626,5.984,8.458,90.0,90.0,90.0,0.686
GdTmO3,Gd,Tm,FALSE,3,3,1.11,0.88,cubic,-3.122,0.740,0.000,14.761,1.964,4.195,4.195,4.195,90.0,90.0,90.0,4.498
GdUO3,Gd,U,FALSE,3,3,1.11,1.03,cubic,-2.621,0.994,0.539,16.911,0.000,4.389,4.389,4.389,90.0,90.0,90.0,2.093
GdVO3,Gd,V,TRUE,3,3,1.11,0.64,orthorhombic,-3.255,-0.044,0.400,11.626,1.258,5.336,5.697,7.649,90.0,90.0,90.0,4.106
GdWO3,Gd,W,FALSE,3,3,1.11,0.66,cubic,-2.250,0.728,0.001,12.450,0.000,3.963,3.963,3.963,90.0,90.0,90.0,1.535
GdYO3,Gd,Y,FALSE,3,3,1.11,0.90,cubic,-2.940,0.860,0.000,15.525,1.911,4.266,4.266,4.266,90.0,90.0,90.0,1.453
GdYbO3,Gd,Yb,FALSE,3,3,1.11,0.87,cubic,-2.441,0.859,0.158,13.821,0.000,4.104,4.104,4.104,90.0,90.0,90.0,-1.690
GdZnO3,Gd,Zn,FALSE,not balanced,not balanced,1.11,0.74,orthorhombic,-2.434,0.122,0.000,11.486,0.000,5.274,5.792,7.520,90.0,90.0,90.0,-0.050
GdZrO3,Gd,Zr,FALSE,2,4,1.11,0.72,cubic,-3.015,0.525,0.000,14.033,0.000,4.125,4.125,4.125,90.0,90.0,90.0,4.296
GeAcO3,Ge,Ac,FALSE,element not in BV,element not in BV,0.63,1.12,orthorhombic,-2.550,0.090,0.000,16.432,0.000,5.918,6.300,8.815,90.0,90.0,90.0,-3.550
GeAgO3,Ge,Ag,FALSE,not balanced,not balanced,0.63,0.95,cubic,-0.019,1.220,-,12.768,0.000,3.997,3.997,3.997,90.0,90.0,90.0,-3.423
GeAlO3,Ge,Al,FALSE,not balanced,not balanced,0.63,0.54,cubic,-1.786,0.706,-,10.092,0.000,3.695,3.695,3.695,90.0,90.0,90.0,-0.233
GeAsO3,Ge,As,FALSE,not balanced,not balanced,0.63,0.52,cubic,-0.938,0.678,-,11.579,0.000,3.869,3.869,3.869,90.0,90.0,90.0,1.583
GeAuO3,Ge,Au,FALSE,element not in BV,element not in BV,0.63,0.93,cubic,-0.054,1.173,-,13.171,0.000,4.038,4.038,4.038,90.0,90.0,90.0,-0.886
GeBO3,Ge,B,FALSE,not balanced,not balanced,0.63,0.27,cubic,-0.847,1.315,-,7.680,0.000,3.374,3.374,3.374,90.0,90.0,90.0,-0.659
GeBaO3,Ge,Ba,FALSE,not balanced,not balanced,0.63,1.35,orthorhombic,-2.394,0.131,-,17.277,3.093,5.186,6.053,11.006,90.0,90.0,90.0,-7.410
GeBeO3,Ge,Be,FALSE,not balanced,not balanced,0.63,0.45,cubic,-1.021,1.299,-,8.262,0.000,3.457,3.457,3.457,90.0,90.0,90.0,-4.938
GeBiO3,Ge,Bi,FALSE,not balanced,not balanced,0.63,0.90,cubic,-0.718,0.960,-,15.486,0.000,4.262,4.262,4.262,90.0,90.0,90.0,0.571
GeCaO3,Ge,Ca,FALSE,not balanced,not balanced,0.63,1.00,tetragonal,-1.480,1.019,-,13.656,0.000,3.467,3.467,5.679,90.0,90.0,90.0,-
GeCdO3,Ge,Cd,FALSE,not balanced,not balanced,0.63,0.95,orthorhombic,-1.519,0.182,-,12.236,0.642,5.348,5.363,8.532,90.0,90.0,90.0,-
GeCeO3,Ge,Ce,FALSE,2,4,0.73,0.87,orthorhombic,-2.466,0.228,0.000,15.221,0.000,5.774,6.139,8.589,90.0,90.0,90.0,-4.155
GeCoO3,Ge,Co,FALSE,2,4,0.73,0.53,cubic,-0.730,0.961,0.532,10.239,0.000,3.713,3.713,3.713,90.0,90.0,90.0,0.905
GeCrO3,Ge,Cr,FALSE,2,4,0.73,0.55,cubic,-1.431,0.660,0.400,10.822,0.000,3.782,3.782,3.782,90.0,90.0,90.0,1.067
GeCsO3,Ge,Cs,FALSE,not balanced,not balanced,0.63,1.67,orthorhombic,-1.547,0.071,-,18.264,0.489,5.682,6.742,9.536,90.0,90.0,90.0,-2.225
GeCuO3,Ge,Cu,FALSE,not balanced,not balanced,0.63,0.68,cubic,-0.400,1.056,-,10.335,0.000,3.725,3.725,3.725,90.0,90.0,90.0,-2.967
GeDyO3,Ge,Dy,FALSE,not balanced,not balanced,0.63,0.99,cubic,-1.624,1.201,0.199,15.662,0.000,4.278,4.278,4.278,90.0,90.0,90.0,-2.969
GeErO3,Ge,Er,FALSE,not balanced,not balanced,0.63,0.89,cubic,-1.681,1.117,-0.196,15.270,0.000,4.242,4.242,4.242,90.0,90.0,90.0,-2.681
GeEuO3,Ge,Eu,FALSE,not balanced,not balanced,0.63,1.06,orthorhombic,-2.572,0.132,0.000,13.539,2.662,5.203,5.204,10.000,90.0,90.0,90.0,-6.036
GeFeO3,Ge,Fe,FALSE,2,4,0.73,0.59,cubic,-1.043,0.777,0.800,10.753,0.000,3.774,3.774,3.774,90.0,90.0,90.0,0.461
GeGaO3,Ge,Ga,FALSE,not balanced,not balanced,0.63,0.62,cubic,-1.058,0.848,-,11.304,0.000,3.838,3.838,3.838,90.0,90.0,90.0,-1.290
GeGdO3,Ge,Gd,FALSE,not balanced,not balanced,0.63,0.94,cubic,-1.539,1.278,0.012,15.985,0.000,4.308,4.308,4.308,90.0,90.0,90.0,-3.459
Ge2O3,Ge,Ge,FALSE,not balanced,not balanced,0.63,0.63,tetragonal,-1.472,0.228,-,11.350,0.237,3.572,3.572,4.448,90.0,90.0,90.0,3.616
GeHfO3,Ge,Hf,FALSE,2,4,0.73,0.71,orthorhombic,-2.660,0.218,0.000,12.262,2.728,5.421,5.756,7.860,90.0,90.0,90.0,4.589
GeHgO3,Ge,Hg,FALSE,not balanced,not balanced,0.63,1.11,cubic,0.066,1.396,-,14.082,0.000,4.129,4.129,4.129,90.0,90.0,90.0,-3.785
GeHoO3,Ge,Ho,FALSE,not balanced,not balanced,0.63,0.90,cubic,-1.636,1.151,0.002,15.410,0.000,4.255,4.255,4.255,90.0,90.0,90.0,-2.999
GeInO3,Ge,In,FALSE,not balanced,not balanced,0.63,0.80,cubic,-0.728,1.061,-,13.800,0.000,4.102,4.102,4.102,90.0,90.0,90.0,-1.987
GeIrO3,Ge,Ir,FALSE,2,4,0.73,0.63,cubic,-0.566,0.886,0.009,12.030,0.000,3.918,3.918,3.918,90.0,90.0,90.0,0.709
GeKO3,Ge,K,FALSE,not balanced,not balanced,0.63,1.38,orthorhombic,-1.601,0.134,-,15.298,0.406,5.311,6.198,9.294,90.0,90.0,90.0,-4.575
GeLaO3,Ge,La,FALSE,not balanced,not balanced,0.63,1.03,cubic,-1.430,1.401,0.200,17.751,0.000,4.461,4.461,4.461,90.0,90.0,90.0,-3.535
GeLiO3,Ge,Li,FALSE,not balanced,not balanced,0.63,0.76,cubic,-0.280,1.602,-,9.052,0.000,3.564,3.564,3.564,90.0,90.0,90.0,-7.295
GeLuO3,Ge,Lu,FALSE,not balanced,not balanced,0.63,0.86,cubic,-1.769,1.062,-0.200,14.708,0.000,4.190,4.190,4.190,90.0,90.0,90.0,-1.926
GeMgO3,Ge,Mg,FALSE,not balanced,not balanced,0.63,0.72,cubic,-0.936,1.468,-,11.457,0.000,3.855,3.855,3.855,90.0,90.0,90.0,-5.364
GeMnO3,Ge,Mn,FALSE,2,4,0.73,0.53,cubic,-1.236,0.789,0.600,10.629,0.000,3.760,3.760,3.760,90.0,90.0,90.0,0.575
GeMoO3,Ge,Mo,FALSE,2,4,0.73,0.65,orthorhombic,-1.555,0.304,0.346,11.553,0.000,5.283,5.684,7.696,90.0,90.0,90.0,3.986
GeNaO3,Ge,Na,FALSE,not balanced,not balanced,0.63,1.02,orthorhombic,-1.604,0.211,-,12.240,0.380,5.082,5.579,8.635,90.0,90.0,90.0,-10.571
GeNbO3,Ge,Nb,FALSE,2,4,0.73,0.68,orthorhombic,-1.970,0.296,0.195,12.028,0.000,5.310,5.812,7.795,90.0,90.0,90.0,4.379
GeNdO3,Ge,Nd,FALSE,not balanced,not balanced,0.63,0.98,cubic,-1.383,1.334,0.200,17.333,0.000,4.425,4.425,4.425,90.0,90.0,90.0,-3.920
GeNiO3,Ge,Ni,FALSE,2,4,0.73,0.48,cubic,-0.525,1.172,0.218,10.140,0.000,3.701,3.701,3.701,90.0,90.0,90.0,-2.919
GeNpO3,Ge,Np,FALSE,element not in BV,element not in BV,0.63,0.86,cubic,-1.883,0.910,0.569,15.992,0.000,4.308,4.308,4.308,90.0,90.0,90.0,1.405
GeOsO3,Ge,Os,FALSE,element not in BV,element not in BV,0.63,0.57,cubic,-0.749,0.733,0.208,11.951,0.000,3.910,3.910,3.910,90.0,90.0,90.0,1.842
GePaO3,Ge,Pa,FALSE,element not in BV,element not in BV,0.63,0.91,rhombohedral,-2.186,0.403,0.200,15.362,0.845,5.963,5.963,5.963,61.1,61.1,61.1,-
GePbO3,Ge,Pb,FALSE,2,4,0.73,0.78,rhombohedral,-1.481,0.280,-,15.853,1.688,6.153,6.153,6.153,58.4,58.4,58.4,0.674
GePdO3,Ge,Pd,FALSE,2,4,0.73,0.62,cubic,-0.349,1.044,-,12.095,0.000,3.925,3.925,3.925,90.0,90.0,90.0,-0.489
GePmO3,Ge,Pm,FALSE,element not in BV,element not in BV,0.63,0.97,cubic,-1.437,1.251,0.200,16.998,0.000,4.397,4.397,4.397,90.0,90.0,90.0,-3.723
GePrO3,Ge,Pr,FALSE,2,4,0.73,0.85,cubic,-1.336,1.302,0.200,17.667,0.000,4.454,4.454,4.454,90.0,90.0,90.0,-4.047
GePtO3,Ge,Pt,FALSE,element not in BV,element not in BV,0.63,0.67,cubic,-0.365,1.005,0.001,12.442,0.000,3.962,3.962,3.962,90.0,90.0,90.0,-0.357
GePuO3,Ge,Pu,FALSE,element not in BV,element not in BV,0.63,0.83,cubic,-1.948,0.719,0.800,16.361,0.000,4.341,4.341,4.341,90.0,90.0,90.0,2.975
GeRbO3,Ge,Rb,FALSE,not balanced,not balanced,0.63,1.52,orthorhombic,-1.571,0.137,-,16.626,0.373,5.430,6.452,9.491,90.0,90.0,90.0,-3.709
GeReO3,Ge,Re,FALSE,2,4,0.73,0.63,cubic,-1.095,0.551,0.000,12.042,0.000,3.919,3.919,3.919,90.0,90.0,90.0,2.429
GeRhO3,Ge,Rh,FALSE,2,4,0.73,0.60,cubic,-0.605,0.839,0.049,11.860,0.000,3.900,3.900,3.900,90.0,90.0,90.0,0.665
GeRuO3,Ge,Ru,FALSE,2,4,0.73,0.62,cubic,-0.817,0.697,0.326,11.859,0.000,3.899,3.899,3.899,90.0,90.0,90.0,2.002
GeSbO3,Ge,Sb,FALSE,2,4,0.73,0.68,cubic,-1.036,0.643,-,13.468,0.000,4.068,4.068,4.068,90.0,90.0,90.0,2.138
GeScO3,Ge,Sc,FALSE,not balanced,not balanced,0.63,0.75,cubic,-1.811,0.943,0.006,13.220,0.000,4.043,4.043,4.043,90.0,90.0,90.0,-1.646
GeSiO3,Ge,Si,FALSE,2,4,0.73,0.40,tetragonal,-2.029,0.382,-,10.110,2.063,3.419,3.419,4.324,90.0,90.0,90.0,5.488
GeSmO3,Ge,Sm,FALSE,not balanced,not balanced,0.63,0.96,cubic,-1.457,1.243,-0.022,16.819,0.000,4.381,4.381,4.381,90.0,90.0,90.0,-3.710
GeSnO3,Ge,Sn,FALSE,2,4,0.73,0.69,orthorhombic,-1.525,0.245,-,12.262,1.097,5.274,5.879,7.909,90.0,90.0,90.0,2.940
GeSrO3,Ge,Sr,FALSE,not balanced,not balanced,0.63,1.18,orthorhombic,-2.429,0.148,-,14.471,2.864,5.208,5.272,10.540,90.0,90.0,90.0,-7.686
GeTaO3,Ge,Ta,FALSE,2,4,0.73,0.68,rhombohedral,-2.091,0.383,0.000,11.682,0.000,5.255,5.255,5.255,66.4,66.4,66.4,-
GeTbO3,Ge,Tb,FALSE,2,4,0.73,0.76,cubic,-1.460,1.170,0.201,15.855,0.000,4.296,4.296,4.296,90.0,90.0,90.0,-3.122
GeTcO3,Ge,Tc,FALSE,element not in BV,element not in BV,0.63,0.60,cubic,-1.121,0.523,0.004,11.871,0.000,3.901,3.901,3.901,90.0,90.0,90.0,2.970
GeTeO3,Ge,Te,FALSE,2,4,0.73,0.97,cubic,-0.732,0.794,-,14.464,0.000,4.166,4.166,4.166,90.0,90.0,90.0,1.654
GeThO3,Ge,Th,FALSE,2,4,0.73,0.94,cubic,-2.162,0.978,0.000,18.789,0.323,4.546,4.546,4.546,90.0,90.0,90.0,2.191
GeTiO3,Ge,Ti,FALSE,2,4,0.73,0.61,tetragonal,-2.361,0.151,0.000,12.078,1.509,3.784,3.784,4.218,90.0,90.0,90.0,4.252
GeTlO3,Ge,Tl,FALSE,not balanced,not balanced,0.63,1.20,rhombohedral,-1.193,0.286,-,15.021,0.000,6.133,6.133,6.133,56.6,56.6,56.6,-3.260
GeTmO3,Ge,Tm,FALSE,not balanced,not balanced,0.63,0.96,cubic,-1.707,1.109,0.003,15.088,0.000,4.225,4.225,4.225,90.0,90.0,90.0,-2.179
GeUO3,Ge,U,FALSE,2,4,0.73,0.89,cubic,-2.198,0.660,0.147,16.111,0.000,4.319,4.319,4.319,90.0,90.0,90.0,3.662
GeVO3,Ge,V,FALSE,2,4,0.73,0.58,tetragonal,-1.954,0.211,0.200,11.902,1.049,3.750,3.750,4.232,90.0,90.0,90.0,2.827
GeWO3,Ge,W,FALSE,2,4,0.73,0.66,tetragonal,-1.540,0.416,0.001,12.521,0.000,3.884,4.015,4.015,90.0,90.0,90.0,3.963
GeYO3,Ge,Y,FALSE,not balanced,not balanced,0.63,0.90,cubic,-1.587,1.235,0.201,15.858,0.000,4.296,4.296,4.296,90.0,90.0,90.0,-3.068
GeYbO3,Ge,Yb,FALSE,not balanced,not balanced,0.63,0.95,orthorhombic,-2.545,0.143,-,12.636,2.100,5.191,5.220,9.326,90.0,90.0,90.0,-5.676
GeZnO3,Ge,Zn,FALSE,not balanced,not balanced,0.63,0.74,cubic,-0.519,1.314,-,11.279,0.000,3.835,3.835,3.835,90.0,90.0,90.0,-4.021
GeZrO3,Ge,Zr,FALSE,2,4,0.73,0.72,cubic,-2.235,0.524,0.000,14.041,1.703,4.125,4.125,4.125,90.0,90.0,90.0,4.191
HfAcO3,Hf,Ac,FALSE,element not in BV,element not in BV,0.83,1.12,orthorhombic,-3.244,0.273,-0.001,15.476,0.000,5.924,6.723,7.772,90.0,90.0,90.0,-4.516
HfAgO3,Hf,Ag,FALSE,not balanced,not balanced,0.83,0.95,orthorhombic,-2.256,0.153,0.000,12.960,0.000,5.040,5.386,9.549,90.0,90.0,90.0,-2.601
HfAlO3,Hf,Al,FALSE,not balanced,not balanced,0.83,0.54,cubic,-2.658,0.748,0.000,9.539,0.000,3.627,3.627,3.627,90.0,90.0,90.0,4.930
HfAsO3,Hf,As,FALSE,4,2,0.83,0.58,cubic,-1.005,1.780,0.156,12.242,0.000,3.941,3.941,3.941,90.0,90.0,90.0,-0.386
HfAuO3,Hf,Au,FALSE,element not in BV,element not in BV,0.83,0.93,cubic,-0.368,2.029,0.053,13.428,0.000,4.064,4.064,4.064,90.0,90.0,90.0,-5.554
HfBO3,Hf,B,FALSE,4,2,0.83,0.27,cubic,-1.859,1.335,0.000,7.852,0.000,3.399,3.399,3.399,90.0,90.0,90.0,3.519
HfBaO3,Hf,Ba,FALSE,4,2,0.83,1.35,orthorhombic,-3.268,0.357,0.000,18.555,3.156,5.992,6.134,10.097,90.0,90.0,90.0,-7.285
HfBeO3,Hf,Be,FALSE,4,2,0.83,0.45,cubic,-2.726,0.764,0.000,7.939,1.190,3.411,3.411,3.411,90.0,90.0,90.0,4.212
HfBiO3,Hf,Bi,FALSE,not balanced,not balanced,0.83,0.90,cubic,-0.616,2.179,0.305,16.040,0.000,4.312,4.312,4.312,90.0,90.0,90.0,-3.857
HfCaO3,Hf,Ca,FALSE,not balanced,not balanced,0.83,1.00,orthorhombic,-3.406,0.263,0.000,13.347,3.862,5.542,5.698,8.453,90.0,90.0,90.0,-
HfCdO3,Hf,Cd,FALSE,4,2,0.83,0.95,orthorhombic,-2.549,0.248,0.000,12.810,2.471,5.597,5.763,7.943,90.0,90.0,90.0,-7.342
HfCeO3,Hf,Ce,FALSE,not balanced,not balanced,0.83,0.94,orthorhombic,-3.190,0.298,0.000,14.483,0.000,6.053,6.259,7.645,90.0,90.0,90.0,-2.899
HfCoO3,Hf,Co,FALSE,4,2,0.83,0.75,cubic,-1.694,1.107,0.130,9.675,0.000,3.644,3.644,3.644,90.0,90.0,90.0,0.800
HfCrO3,Hf,Cr,FALSE,2,4,0.83,0.55,cubic,-2.046,1.085,0.529,10.687,0.000,3.767,3.767,3.767,90.0,90.0,90.0,2.003
HfCsO3,Hf,Cs,FALSE,not balanced,not balanced,0.83,1.67,-,-,-,-,-,-,-,-,-,-,-,-,-
HfCuO3,Hf,Cu,FALSE,4,2,0.83,0.73,cubic,-1.456,1.170,0.000,9.972,0.000,3.681,3.681,3.681,90.0,90.0,90.0,-0.388
HfDyO3,Hf,Dy,FALSE,4,2,0.83,1.07,cubic,-1.967,1.686,0.163,15.186,0.000,4.235,4.235,4.235,90.0,90.0,90.0,-6.515
HfErO3,Hf,Er,FALSE,not balanced,not balanced,0.83,0.89,cubic,-2.072,1.604,0.149,14.675,0.000,4.186,4.186,4.186,90.0,90.0,90.0,-6.122
HfEuO3,Hf,Eu,FALSE,not balanced,not balanced,0.83,1.06,orthorhombic,-3.497,0.347,0.000,14.356,3.359,5.753,5.847,8.535,90.0,90.0,90.0,-11.178
HfFeO3,Hf,Fe,FALSE,4,2,0.83,0.78,cubic,-1.634,1.278,0.877,10.751,0.000,3.774,3.774,3.774,90.0,90.0,90.0,-
HfGaO3,Hf,Ga,FALSE,not balanced,not balanced,0.83,0.62,cubic,-1.833,1.171,0.006,10.587,0.000,3.755,3.755,3.755,90.0,90.0,90.0,2.160
HfGdO3,Hf,Gd,FALSE,not balanced,not balanced,0.83,0.94,cubic,-1.847,1.798,0.171,15.785,0.000,4.289,4.289,4.289,90.0,90.0,90.0,-7.690
HfGeO3,Hf,Ge,FALSE,2,4,0.83,0.53,cubic,-1.351,1.527,0.183,11.127,0.000,3.818,3.818,3.818,90.0,90.0,90.0,0.650
Hf2O3,Hf,Hf,FALSE,not balanced,not balanced,0.83,0.71,cubic,-2.340,1.115,0.340,13.349,0.000,4.056,4.056,4.056,90.0,90.0,90.0,2.460
HfHgO3,Hf,Hg,FALSE,4,2,0.83,1.02,orthorhombic,-2.228,0.257,0.000,13.616,1.593,5.258,5.545,9.340,90.0,90.0,90.0,-5.258
HfHoO3,Hf,Ho,FALSE,4,2,0.83,0.90,cubic,-2.021,1.643,0.157,14.920,0.000,4.210,4.210,4.210,90.0,90.0,90.0,-6.539
HfInO3,Hf,In,FALSE,not balanced,not balanced,0.83,0.80,cubic,-1.224,1.694,0.099,13.383,0.000,4.060,4.060,4.060,90.0,90.0,90.0,-
HfIrO3,Hf,Ir,FALSE,not balanced,not balanced,0.83,0.63,cubic,-0.807,1.816,0.001,12.028,0.000,3.918,3.918,3.918,90.0,90.0,90.0,-3.188
HfKO3,Hf,K,FALSE,not balanced,not balanced,0.83,1.38,orthorhombic,-2.605,0.278,0.200,15.673,0.989,6.409,6.878,7.111,90.0,90.0,90.0,-15.905
HfLaO3,Hf,La,FALSE,not balanced,not balanced,0.83,1.03,orthorhombic,-3.262,0.395,0.000,14.500,0.000,5.982,6.231,7.780,90.0,90.0,90.0,-2.024
HfLiO3,Hf,Li,FALSE,not balanced,not balanced,0.83,0.76,orthorhombic,-2.734,0.244,0.172,9.354,0.000,5.001,5.535,6.758,90.0,90.0,90.0,-3.019
HfLuO3,Hf,Lu,FALSE,not balanced,not balanced,0.83,0.86,cubic,-2.224,1.484,0.124,13.959,0.000,4.117,4.117,4.117,90.0,90.0,90.0,-4.832
HfMgO3,Hf,Mg,FALSE,4,2,0.83,0.72,cubic,-2.321,1.161,0.000,9.985,1.042,3.682,3.682,3.682,90.0,90.0,90.0,0.790
HfMnO3,Hf,Mn,FALSE,2,4,0.83,0.53,cubic,-1.819,1.299,0.773,10.879,0.000,3.789,3.789,3.789,90.0,90.0,90.0,1.450
HfMoO3,Hf,Mo,FALSE,not balanced,not balanced,0.83,0.62,cubic,-1.466,1.484,0.238,12.082,0.000,3.924,3.924,3.924,90.0,90.0,90.0,-0.904
HfNaO3,Hf,Na,FALSE,not balanced,not balanced,0.83,1.02,orthorhombic,-2.654,0.182,0.019,13.094,0.000,5.150,5.273,9.644,90.0,90.0,90.0,-5.152
HfNbO3,Hf,Nb,FALSE,4,2,0.83,0.72,cubic,-1.795,1.370,0.286,12.824,0.000,4.003,4.003,4.003,90.0,90.0,90.0,0.433
HfNdO3,Hf,Nd,FALSE,not balanced,not balanced,0.83,0.98,orthorhombic,-3.226,0.312,0.000,14.025,0.000,6.019,6.141,7.589,90.0,90.0,90.0,-1.811
HfNiO3,Hf,Ni,FALSE,4,2,0.83,0.69,cubic,-1.670,1.130,0.353,9.852,0.000,3.666,3.666,3.666,90.0,90.0,90.0,0.593